
     Program PWSCF v.7.2 starts on 29Aug2025 at  1:26: 8 

     This program is part of the open-source Quantum ESPRESSO suite
     for quantum simulation of materials; please cite
         "P. Giannozzi et al., J. Phys.:Condens. Matter 21 395502 (2009);
         "P. Giannozzi et al., J. Phys.:Condens. Matter 29 465901 (2017);
         "P. Giannozzi et al., J. Chem. Phys. 152 154105 (2020);
          URL http://www.quantum-espresso.org", 
     in publications or presentations arising from this work. More details at
     http://www.quantum-espresso.org/quote

     Parallel version (MPI), running on    64 processors

     MPI processes distributed on     1 nodes
     219853 MiB available memory on the printing compute node when the environment starts

     Waiting for input...
     Reading input from standard input

     Current dimensions of program PWSCF are:
     Max number of different atomic species (ntypx) = 10
     Max number of k-points (npk) =  40000
     Max angular momentum in pseudopotentials (lmaxx) =  4

     Atomic positions and unit cell read from directory:
     ./outdir/ZnO.save/
     Atomic positions from file used, from input discarded


     K-points division:     npool     =       4
     R & G space division:  proc/nbgrp/npool/nimage =      16
     Subspace diagonalization in iterative solution of the eigenvalue problem:
     a serial algorithm will be used


     Parallelization info
     --------------------
     sticks:   dense  smooth     PW     G-vecs:    dense   smooth      PW
     Min          31      31     10                  947      947     178
     Max          32      32     11                  958      958     183
     Sum         511     511    163                15267    15267    2875

     Using Slab Decomposition



     bravais-lattice index     =            4
     lattice parameter (alat)  =       6.1227  a.u.
     unit-cell volume          =     320.2490 (a.u.)^3
     number of atoms/cell      =            4
     number of atomic types    =            2
     number of electrons       =        52.00
     number of Kohn-Sham states=           35
     kinetic-energy cutoff     =      50.0000  Ry
     charge density cutoff     =     200.0000  Ry
     Exchange-correlation= PBE
                           (   1   4   3   4   0   0   0)

     celldm(1)=   6.122713  celldm(2)=   0.000000  celldm(3)=   1.611111
     celldm(4)=   0.000000  celldm(5)=   0.000000  celldm(6)=   0.000000

     crystal axes: (cart. coord. in units of alat)
               a(1) = (   1.000000   0.000000   0.000000 )  
               a(2) = (  -0.500000   0.866025   0.000000 )  
               a(3) = (   0.000000   0.000000   1.611111 )  

     reciprocal axes: (cart. coord. in units 2 pi/alat)
               b(1) = (  1.000000  0.577350 -0.000000 )  
               b(2) = (  0.000000  1.154701  0.000000 )  
               b(3) = (  0.000000 -0.000000  0.620690 )  


     PseudoPot. # 1 for Zn read from file:
     ../../../pseudo_NC_PBE/Zn.upf
     MD5 check sum: 9b7be680307954c2706c150df658ede8
     Pseudo is Norm-conserving + core correction, Zval = 20.0
     Generated using ONCVPSP code by D. R. Hamann
     Using radial grid of 1326 points,  6 beta functions with: 
                l(1) =   0
                l(2) =   0
                l(3) =   1
                l(4) =   1
                l(5) =   2
                l(6) =   2

     PseudoPot. # 2 for O  read from file:
     ../../../pseudo_NC_PBE/O.upf
     MD5 check sum: 3e3f909f7470e8921608ab6b1f57bbae
     Pseudo is Norm-conserving + core correction, Zval =  6.0
     Generated using ONCVPSP code by D. R. Hamann
     Using radial grid of  936 points,  5 beta functions with: 
                l(1) =   0
                l(2) =   0
                l(3) =   1
                l(4) =   1
                l(5) =   2

     atomic species   valence    mass     pseudopotential
        Zn            20.00    65.38000     Zn( 1.00)
        O              6.00    15.99940     O ( 1.00)

     No symmetry found


                                    s                        frac. trans.

      isym =  1     identity                                     

 cryst.   s( 1) = (     1          0          0      )
                  (     0          1          0      )
                  (     0          0          1      )

 cart.    s( 1) = (  1.0000000  0.0000000  0.0000000 )
                  (  0.0000000  1.0000000  0.0000000 )
                  (  0.0000000  0.0000000  1.0000000 )


     point group C_1 (1)    
     there are  1 classes
     the character table:

       E    
A      1.00

     the symmetry operations in each class and the name of the first element:

     E        1
          identity                                               

   Cartesian axes

     site n.     atom                  positions (alat units)
         1           Zn  tau(   1) = (   0.4995912   0.2884391   0.8068273  )
         2           Zn  tau(   2) = (  -0.0000000   0.5768782   0.0009537  )
         3           O   tau(   3) = (   0.4995912   0.2884391   1.4178836  )
         4           O   tau(   4) = (  -0.0000000   0.5768782   0.6120099  )

   Crystallographic axes

     site n.     atom                  positions (cryst. coord.)
         1           Zn  tau(   1) = (  0.6661216  0.3330608  0.5007894  )
         2           Zn  tau(   2) = (  0.3330608  0.6661216  0.0005919  )
         3           O   tau(   3) = (  0.6661216  0.3330608  0.8800657  )
         4           O   tau(   4) = (  0.3330608  0.6661216  0.3798682  )

     number of k points=   481
                       cart. coord. in units 2pi/alat
        k(    1) = (   0.0000000   0.0000000   0.0000000), wk =   0.0041580
        k(    2) = (   0.0125000   0.0072169   0.0000000), wk =   0.0041580
        k(    3) = (   0.0250000   0.0144338   0.0000000), wk =   0.0041580
        k(    4) = (   0.0375000   0.0216506   0.0000000), wk =   0.0041580
        k(    5) = (   0.0500000   0.0288675   0.0000000), wk =   0.0041580
        k(    6) = (   0.0625000   0.0360844   0.0000000), wk =   0.0041580
        k(    7) = (   0.0750000   0.0433013   0.0000000), wk =   0.0041580
        k(    8) = (   0.0875000   0.0505181   0.0000000), wk =   0.0041580
        k(    9) = (   0.1000000   0.0577350   0.0000000), wk =   0.0041580
        k(   10) = (   0.1125000   0.0649519   0.0000000), wk =   0.0041580
        k(   11) = (   0.1250000   0.0721688   0.0000000), wk =   0.0041580
        k(   12) = (   0.1375000   0.0793857   0.0000000), wk =   0.0041580
        k(   13) = (   0.1500000   0.0866025   0.0000000), wk =   0.0041580
        k(   14) = (   0.1625000   0.0938194   0.0000000), wk =   0.0041580
        k(   15) = (   0.1750000   0.1010363   0.0000000), wk =   0.0041580
        k(   16) = (   0.1875000   0.1082532   0.0000000), wk =   0.0041580
        k(   17) = (   0.2000000   0.1154701   0.0000000), wk =   0.0041580
        k(   18) = (   0.2125000   0.1226869   0.0000000), wk =   0.0041580
        k(   19) = (   0.2250000   0.1299038   0.0000000), wk =   0.0041580
        k(   20) = (   0.2375000   0.1371207   0.0000000), wk =   0.0041580
        k(   21) = (   0.2500000   0.1443376   0.0000000), wk =   0.0041580
        k(   22) = (   0.2625000   0.1515544   0.0000000), wk =   0.0041580
        k(   23) = (   0.2750000   0.1587713   0.0000000), wk =   0.0041580
        k(   24) = (   0.2875000   0.1659882   0.0000000), wk =   0.0041580
        k(   25) = (   0.3000000   0.1732051   0.0000000), wk =   0.0041580
        k(   26) = (   0.3125000   0.1804220   0.0000000), wk =   0.0041580
        k(   27) = (   0.3250000   0.1876388   0.0000000), wk =   0.0041580
        k(   28) = (   0.3375000   0.1948557   0.0000000), wk =   0.0041580
        k(   29) = (   0.3500000   0.2020726   0.0000000), wk =   0.0041580
        k(   30) = (   0.3625000   0.2092895   0.0000000), wk =   0.0041580
        k(   31) = (   0.3750000   0.2165064   0.0000000), wk =   0.0041580
        k(   32) = (   0.3875000   0.2237232   0.0000000), wk =   0.0041580
        k(   33) = (   0.4000000   0.2309401   0.0000000), wk =   0.0041580
        k(   34) = (   0.4125000   0.2381570   0.0000000), wk =   0.0041580
        k(   35) = (   0.4250000   0.2453739   0.0000000), wk =   0.0041580
        k(   36) = (   0.4375000   0.2525907   0.0000000), wk =   0.0041580
        k(   37) = (   0.4500000   0.2598076   0.0000000), wk =   0.0041580
        k(   38) = (   0.4625000   0.2670245   0.0000000), wk =   0.0041580
        k(   39) = (   0.4750000   0.2742414   0.0000000), wk =   0.0041580
        k(   40) = (   0.4875000   0.2814583   0.0000000), wk =   0.0041580
        k(   41) = (   0.5000000   0.2886751   0.0000000), wk =   0.0041580
        k(   42) = (   0.4958333   0.2958920   0.0000000), wk =   0.0041580
        k(   43) = (   0.4916667   0.3031089   0.0000000), wk =   0.0041580
        k(   44) = (   0.4875000   0.3103258   0.0000000), wk =   0.0041580
        k(   45) = (   0.4833333   0.3175426   0.0000000), wk =   0.0041580
        k(   46) = (   0.4791667   0.3247595   0.0000000), wk =   0.0041580
        k(   47) = (   0.4750000   0.3319764   0.0000000), wk =   0.0041580
        k(   48) = (   0.4708333   0.3391933   0.0000000), wk =   0.0041580
        k(   49) = (   0.4666667   0.3464102   0.0000000), wk =   0.0041580
        k(   50) = (   0.4625000   0.3536270   0.0000000), wk =   0.0041580
        k(   51) = (   0.4583333   0.3608439   0.0000000), wk =   0.0041580
        k(   52) = (   0.4541667   0.3680608   0.0000000), wk =   0.0041580
        k(   53) = (   0.4500000   0.3752777   0.0000000), wk =   0.0041580
        k(   54) = (   0.4458333   0.3824946   0.0000000), wk =   0.0041580
        k(   55) = (   0.4416667   0.3897114   0.0000000), wk =   0.0041580
        k(   56) = (   0.4375000   0.3969283   0.0000000), wk =   0.0041580
        k(   57) = (   0.4333333   0.4041452   0.0000000), wk =   0.0041580
        k(   58) = (   0.4291667   0.4113621   0.0000000), wk =   0.0041580
        k(   59) = (   0.4250000   0.4185789   0.0000000), wk =   0.0041580
        k(   60) = (   0.4208333   0.4257958   0.0000000), wk =   0.0041580
        k(   61) = (   0.4166667   0.4330127   0.0000000), wk =   0.0041580
        k(   62) = (   0.4125000   0.4402296   0.0000000), wk =   0.0041580
        k(   63) = (   0.4083333   0.4474465   0.0000000), wk =   0.0041580
        k(   64) = (   0.4041667   0.4546633   0.0000000), wk =   0.0041580
        k(   65) = (   0.4000000   0.4618802   0.0000000), wk =   0.0041580
        k(   66) = (   0.3958333   0.4690971   0.0000000), wk =   0.0041580
        k(   67) = (   0.3916667   0.4763140   0.0000000), wk =   0.0041580
        k(   68) = (   0.3875000   0.4835308   0.0000000), wk =   0.0041580
        k(   69) = (   0.3833333   0.4907477   0.0000000), wk =   0.0041580
        k(   70) = (   0.3791667   0.4979646   0.0000000), wk =   0.0041580
        k(   71) = (   0.3750000   0.5051815   0.0000000), wk =   0.0041580
        k(   72) = (   0.3708333   0.5123984   0.0000000), wk =   0.0041580
        k(   73) = (   0.3666667   0.5196152   0.0000000), wk =   0.0041580
        k(   74) = (   0.3625000   0.5268321   0.0000000), wk =   0.0041580
        k(   75) = (   0.3583333   0.5340490   0.0000000), wk =   0.0041580
        k(   76) = (   0.3541667   0.5412659   0.0000000), wk =   0.0041580
        k(   77) = (   0.3500000   0.5484828   0.0000000), wk =   0.0041580
        k(   78) = (   0.3458333   0.5556996   0.0000000), wk =   0.0041580
        k(   79) = (   0.3416667   0.5629165   0.0000000), wk =   0.0041580
        k(   80) = (   0.3375000   0.5701334   0.0000000), wk =   0.0041580
        k(   81) = (   0.3333333   0.5773503   0.0000000), wk =   0.0041580
        k(   82) = (   0.3250000   0.5629165   0.0000000), wk =   0.0041580
        k(   83) = (   0.3166667   0.5484828   0.0000000), wk =   0.0041580
        k(   84) = (   0.3083333   0.5340490   0.0000000), wk =   0.0041580
        k(   85) = (   0.3000000   0.5196152   0.0000000), wk =   0.0041580
        k(   86) = (   0.2916667   0.5051815   0.0000000), wk =   0.0041580
        k(   87) = (   0.2833333   0.4907477   0.0000000), wk =   0.0041580
        k(   88) = (   0.2750000   0.4763140   0.0000000), wk =   0.0041580
        k(   89) = (   0.2666667   0.4618802   0.0000000), wk =   0.0041580
        k(   90) = (   0.2583333   0.4474465   0.0000000), wk =   0.0041580
        k(   91) = (   0.2500000   0.4330127   0.0000000), wk =   0.0041580
        k(   92) = (   0.2416667   0.4185789   0.0000000), wk =   0.0041580
        k(   93) = (   0.2333333   0.4041452   0.0000000), wk =   0.0041580
        k(   94) = (   0.2250000   0.3897114   0.0000000), wk =   0.0041580
        k(   95) = (   0.2166667   0.3752777   0.0000000), wk =   0.0041580
        k(   96) = (   0.2083333   0.3608439   0.0000000), wk =   0.0041580
        k(   97) = (   0.2000000   0.3464102   0.0000000), wk =   0.0041580
        k(   98) = (   0.1916667   0.3319764   0.0000000), wk =   0.0041580
        k(   99) = (   0.1833333   0.3175426   0.0000000), wk =   0.0041580
        k(  100) = (   0.1750000   0.3031089   0.0000000), wk =   0.0041580
        k(  101) = (   0.1666667   0.2886751   0.0000000), wk =   0.0041580
        k(  102) = (   0.1583333   0.2742414   0.0000000), wk =   0.0041580
        k(  103) = (   0.1500000   0.2598076   0.0000000), wk =   0.0041580
        k(  104) = (   0.1416667   0.2453739   0.0000000), wk =   0.0041580
        k(  105) = (   0.1333333   0.2309401   0.0000000), wk =   0.0041580
        k(  106) = (   0.1250000   0.2165063   0.0000000), wk =   0.0041580
        k(  107) = (   0.1166667   0.2020726   0.0000000), wk =   0.0041580
        k(  108) = (   0.1083333   0.1876388   0.0000000), wk =   0.0041580
        k(  109) = (   0.1000000   0.1732051   0.0000000), wk =   0.0041580
        k(  110) = (   0.0916667   0.1587713   0.0000000), wk =   0.0041580
        k(  111) = (   0.0833333   0.1443376   0.0000000), wk =   0.0041580
        k(  112) = (   0.0750000   0.1299038   0.0000000), wk =   0.0041580
        k(  113) = (   0.0666667   0.1154701   0.0000000), wk =   0.0041580
        k(  114) = (   0.0583333   0.1010363   0.0000000), wk =   0.0041580
        k(  115) = (   0.0500000   0.0866025   0.0000000), wk =   0.0041580
        k(  116) = (   0.0416667   0.0721688   0.0000000), wk =   0.0041580
        k(  117) = (   0.0333333   0.0577350   0.0000000), wk =   0.0041580
        k(  118) = (   0.0250000   0.0433013   0.0000000), wk =   0.0041580
        k(  119) = (   0.0166667   0.0288675   0.0000000), wk =   0.0041580
        k(  120) = (   0.0083333   0.0144338   0.0000000), wk =   0.0041580
        k(  121) = (   0.0000000   0.0000000   0.0000000), wk =   0.0041580
        k(  122) = (   0.0000000   0.0000000   0.0077586), wk =   0.0041580
        k(  123) = (   0.0000000   0.0000000   0.0155172), wk =   0.0041580
        k(  124) = (   0.0000000   0.0000000   0.0232759), wk =   0.0041580
        k(  125) = (   0.0000000   0.0000000   0.0310345), wk =   0.0041580
        k(  126) = (   0.0000000   0.0000000   0.0387931), wk =   0.0041580
        k(  127) = (   0.0000000   0.0000000   0.0465517), wk =   0.0041580
        k(  128) = (   0.0000000   0.0000000   0.0543103), wk =   0.0041580
        k(  129) = (   0.0000000   0.0000000   0.0620690), wk =   0.0041580
        k(  130) = (   0.0000000   0.0000000   0.0698276), wk =   0.0041580
        k(  131) = (   0.0000000   0.0000000   0.0775862), wk =   0.0041580
        k(  132) = (   0.0000000   0.0000000   0.0853448), wk =   0.0041580
        k(  133) = (   0.0000000   0.0000000   0.0931034), wk =   0.0041580
        k(  134) = (   0.0000000   0.0000000   0.1008621), wk =   0.0041580
        k(  135) = (   0.0000000   0.0000000   0.1086207), wk =   0.0041580
        k(  136) = (   0.0000000   0.0000000   0.1163793), wk =   0.0041580
        k(  137) = (   0.0000000   0.0000000   0.1241379), wk =   0.0041580
        k(  138) = (   0.0000000   0.0000000   0.1318966), wk =   0.0041580
        k(  139) = (   0.0000000   0.0000000   0.1396552), wk =   0.0041580
        k(  140) = (   0.0000000   0.0000000   0.1474138), wk =   0.0041580
        k(  141) = (   0.0000000   0.0000000   0.1551724), wk =   0.0041580
        k(  142) = (   0.0000000   0.0000000   0.1629310), wk =   0.0041580
        k(  143) = (   0.0000000   0.0000000   0.1706897), wk =   0.0041580
        k(  144) = (   0.0000000   0.0000000   0.1784483), wk =   0.0041580
        k(  145) = (   0.0000000   0.0000000   0.1862069), wk =   0.0041580
        k(  146) = (   0.0000000   0.0000000   0.1939655), wk =   0.0041580
        k(  147) = (   0.0000000   0.0000000   0.2017241), wk =   0.0041580
        k(  148) = (   0.0000000   0.0000000   0.2094828), wk =   0.0041580
        k(  149) = (   0.0000000   0.0000000   0.2172414), wk =   0.0041580
        k(  150) = (   0.0000000   0.0000000   0.2250000), wk =   0.0041580
        k(  151) = (   0.0000000   0.0000000   0.2327586), wk =   0.0041580
        k(  152) = (   0.0000000   0.0000000   0.2405172), wk =   0.0041580
        k(  153) = (   0.0000000   0.0000000   0.2482759), wk =   0.0041580
        k(  154) = (   0.0000000   0.0000000   0.2560345), wk =   0.0041580
        k(  155) = (   0.0000000   0.0000000   0.2637931), wk =   0.0041580
        k(  156) = (   0.0000000   0.0000000   0.2715517), wk =   0.0041580
        k(  157) = (   0.0000000   0.0000000   0.2793103), wk =   0.0041580
        k(  158) = (   0.0000000   0.0000000   0.2870690), wk =   0.0041580
        k(  159) = (   0.0000000   0.0000000   0.2948276), wk =   0.0041580
        k(  160) = (   0.0000000   0.0000000   0.3025862), wk =   0.0041580
        k(  161) = (   0.0000000   0.0000000   0.3103448), wk =   0.0041580
        k(  162) = (   0.0125000   0.0072169   0.3103448), wk =   0.0041580
        k(  163) = (   0.0250000   0.0144338   0.3103448), wk =   0.0041580
        k(  164) = (   0.0375000   0.0216506   0.3103448), wk =   0.0041580
        k(  165) = (   0.0500000   0.0288675   0.3103448), wk =   0.0041580
        k(  166) = (   0.0625000   0.0360844   0.3103448), wk =   0.0041580
        k(  167) = (   0.0750000   0.0433013   0.3103448), wk =   0.0041580
        k(  168) = (   0.0875000   0.0505181   0.3103448), wk =   0.0041580
        k(  169) = (   0.1000000   0.0577350   0.3103448), wk =   0.0041580
        k(  170) = (   0.1125000   0.0649519   0.3103448), wk =   0.0041580
        k(  171) = (   0.1250000   0.0721688   0.3103448), wk =   0.0041580
        k(  172) = (   0.1375000   0.0793857   0.3103448), wk =   0.0041580
        k(  173) = (   0.1500000   0.0866025   0.3103448), wk =   0.0041580
        k(  174) = (   0.1625000   0.0938194   0.3103448), wk =   0.0041580
        k(  175) = (   0.1750000   0.1010363   0.3103448), wk =   0.0041580
        k(  176) = (   0.1875000   0.1082532   0.3103448), wk =   0.0041580
        k(  177) = (   0.2000000   0.1154701   0.3103448), wk =   0.0041580
        k(  178) = (   0.2125000   0.1226869   0.3103448), wk =   0.0041580
        k(  179) = (   0.2250000   0.1299038   0.3103448), wk =   0.0041580
        k(  180) = (   0.2375000   0.1371207   0.3103448), wk =   0.0041580
        k(  181) = (   0.2500000   0.1443376   0.3103448), wk =   0.0041580
        k(  182) = (   0.2625000   0.1515544   0.3103448), wk =   0.0041580
        k(  183) = (   0.2750000   0.1587713   0.3103448), wk =   0.0041580
        k(  184) = (   0.2875000   0.1659882   0.3103448), wk =   0.0041580
        k(  185) = (   0.3000000   0.1732051   0.3103448), wk =   0.0041580
        k(  186) = (   0.3125000   0.1804220   0.3103448), wk =   0.0041580
        k(  187) = (   0.3250000   0.1876388   0.3103448), wk =   0.0041580
        k(  188) = (   0.3375000   0.1948557   0.3103448), wk =   0.0041580
        k(  189) = (   0.3500000   0.2020726   0.3103448), wk =   0.0041580
        k(  190) = (   0.3625000   0.2092895   0.3103448), wk =   0.0041580
        k(  191) = (   0.3750000   0.2165064   0.3103448), wk =   0.0041580
        k(  192) = (   0.3875000   0.2237232   0.3103448), wk =   0.0041580
        k(  193) = (   0.4000000   0.2309401   0.3103448), wk =   0.0041580
        k(  194) = (   0.4125000   0.2381570   0.3103448), wk =   0.0041580
        k(  195) = (   0.4250000   0.2453739   0.3103448), wk =   0.0041580
        k(  196) = (   0.4375000   0.2525907   0.3103448), wk =   0.0041580
        k(  197) = (   0.4500000   0.2598076   0.3103448), wk =   0.0041580
        k(  198) = (   0.4625000   0.2670245   0.3103448), wk =   0.0041580
        k(  199) = (   0.4750000   0.2742414   0.3103448), wk =   0.0041580
        k(  200) = (   0.4875000   0.2814583   0.3103448), wk =   0.0041580
        k(  201) = (   0.5000000   0.2886751   0.3103448), wk =   0.0041580
        k(  202) = (   0.4958333   0.2958920   0.3103448), wk =   0.0041580
        k(  203) = (   0.4916667   0.3031089   0.3103448), wk =   0.0041580
        k(  204) = (   0.4875000   0.3103258   0.3103448), wk =   0.0041580
        k(  205) = (   0.4833333   0.3175426   0.3103448), wk =   0.0041580
        k(  206) = (   0.4791667   0.3247595   0.3103448), wk =   0.0041580
        k(  207) = (   0.4750000   0.3319764   0.3103448), wk =   0.0041580
        k(  208) = (   0.4708333   0.3391933   0.3103448), wk =   0.0041580
        k(  209) = (   0.4666667   0.3464102   0.3103448), wk =   0.0041580
        k(  210) = (   0.4625000   0.3536270   0.3103448), wk =   0.0041580
        k(  211) = (   0.4583333   0.3608439   0.3103448), wk =   0.0041580
        k(  212) = (   0.4541667   0.3680608   0.3103448), wk =   0.0041580
        k(  213) = (   0.4500000   0.3752777   0.3103448), wk =   0.0041580
        k(  214) = (   0.4458333   0.3824946   0.3103448), wk =   0.0041580
        k(  215) = (   0.4416667   0.3897114   0.3103448), wk =   0.0041580
        k(  216) = (   0.4375000   0.3969283   0.3103448), wk =   0.0041580
        k(  217) = (   0.4333333   0.4041452   0.3103448), wk =   0.0041580
        k(  218) = (   0.4291667   0.4113621   0.3103448), wk =   0.0041580
        k(  219) = (   0.4250000   0.4185789   0.3103448), wk =   0.0041580
        k(  220) = (   0.4208333   0.4257958   0.3103448), wk =   0.0041580
        k(  221) = (   0.4166667   0.4330127   0.3103448), wk =   0.0041580
        k(  222) = (   0.4125000   0.4402296   0.3103448), wk =   0.0041580
        k(  223) = (   0.4083333   0.4474465   0.3103448), wk =   0.0041580
        k(  224) = (   0.4041667   0.4546633   0.3103448), wk =   0.0041580
        k(  225) = (   0.4000000   0.4618802   0.3103448), wk =   0.0041580
        k(  226) = (   0.3958333   0.4690971   0.3103448), wk =   0.0041580
        k(  227) = (   0.3916667   0.4763140   0.3103448), wk =   0.0041580
        k(  228) = (   0.3875000   0.4835308   0.3103448), wk =   0.0041580
        k(  229) = (   0.3833333   0.4907477   0.3103448), wk =   0.0041580
        k(  230) = (   0.3791667   0.4979646   0.3103448), wk =   0.0041580
        k(  231) = (   0.3750000   0.5051815   0.3103448), wk =   0.0041580
        k(  232) = (   0.3708333   0.5123984   0.3103448), wk =   0.0041580
        k(  233) = (   0.3666667   0.5196152   0.3103448), wk =   0.0041580
        k(  234) = (   0.3625000   0.5268321   0.3103448), wk =   0.0041580
        k(  235) = (   0.3583333   0.5340490   0.3103448), wk =   0.0041580
        k(  236) = (   0.3541667   0.5412659   0.3103448), wk =   0.0041580
        k(  237) = (   0.3500000   0.5484828   0.3103448), wk =   0.0041580
        k(  238) = (   0.3458333   0.5556996   0.3103448), wk =   0.0041580
        k(  239) = (   0.3416667   0.5629165   0.3103448), wk =   0.0041580
        k(  240) = (   0.3375000   0.5701334   0.3103448), wk =   0.0041580
        k(  241) = (   0.3333333   0.5773503   0.3103448), wk =   0.0041580
        k(  242) = (   0.3250000   0.5629165   0.3103448), wk =   0.0041580
        k(  243) = (   0.3166667   0.5484828   0.3103448), wk =   0.0041580
        k(  244) = (   0.3083333   0.5340490   0.3103448), wk =   0.0041580
        k(  245) = (   0.3000000   0.5196152   0.3103448), wk =   0.0041580
        k(  246) = (   0.2916667   0.5051815   0.3103448), wk =   0.0041580
        k(  247) = (   0.2833333   0.4907477   0.3103448), wk =   0.0041580
        k(  248) = (   0.2750000   0.4763140   0.3103448), wk =   0.0041580
        k(  249) = (   0.2666667   0.4618802   0.3103448), wk =   0.0041580
        k(  250) = (   0.2583333   0.4474465   0.3103448), wk =   0.0041580
        k(  251) = (   0.2500000   0.4330127   0.3103448), wk =   0.0041580
        k(  252) = (   0.2416667   0.4185789   0.3103448), wk =   0.0041580
        k(  253) = (   0.2333333   0.4041452   0.3103448), wk =   0.0041580
        k(  254) = (   0.2250000   0.3897114   0.3103448), wk =   0.0041580
        k(  255) = (   0.2166667   0.3752777   0.3103448), wk =   0.0041580
        k(  256) = (   0.2083333   0.3608439   0.3103448), wk =   0.0041580
        k(  257) = (   0.2000000   0.3464102   0.3103448), wk =   0.0041580
        k(  258) = (   0.1916667   0.3319764   0.3103448), wk =   0.0041580
        k(  259) = (   0.1833333   0.3175426   0.3103448), wk =   0.0041580
        k(  260) = (   0.1750000   0.3031089   0.3103448), wk =   0.0041580
        k(  261) = (   0.1666667   0.2886751   0.3103448), wk =   0.0041580
        k(  262) = (   0.1583333   0.2742414   0.3103448), wk =   0.0041580
        k(  263) = (   0.1500000   0.2598076   0.3103448), wk =   0.0041580
        k(  264) = (   0.1416667   0.2453739   0.3103448), wk =   0.0041580
        k(  265) = (   0.1333333   0.2309401   0.3103448), wk =   0.0041580
        k(  266) = (   0.1250000   0.2165063   0.3103448), wk =   0.0041580
        k(  267) = (   0.1166667   0.2020726   0.3103448), wk =   0.0041580
        k(  268) = (   0.1083333   0.1876388   0.3103448), wk =   0.0041580
        k(  269) = (   0.1000000   0.1732051   0.3103448), wk =   0.0041580
        k(  270) = (   0.0916667   0.1587713   0.3103448), wk =   0.0041580
        k(  271) = (   0.0833333   0.1443376   0.3103448), wk =   0.0041580
        k(  272) = (   0.0750000   0.1299038   0.3103448), wk =   0.0041580
        k(  273) = (   0.0666667   0.1154701   0.3103448), wk =   0.0041580
        k(  274) = (   0.0583333   0.1010363   0.3103448), wk =   0.0041580
        k(  275) = (   0.0500000   0.0866025   0.3103448), wk =   0.0041580
        k(  276) = (   0.0416667   0.0721688   0.3103448), wk =   0.0041580
        k(  277) = (   0.0333333   0.0577350   0.3103448), wk =   0.0041580
        k(  278) = (   0.0250000   0.0433013   0.3103448), wk =   0.0041580
        k(  279) = (   0.0166667   0.0288675   0.3103448), wk =   0.0041580
        k(  280) = (   0.0083333   0.0144338   0.3103448), wk =   0.0041580
        k(  281) = (   0.0000000   0.0000000   0.3103448), wk =   0.0041580
        k(  282) = (   0.0125000   0.0072169   0.3103448), wk =   0.0041580
        k(  283) = (   0.0250000   0.0144338   0.3103448), wk =   0.0041580
        k(  284) = (   0.0375000   0.0216506   0.3103448), wk =   0.0041580
        k(  285) = (   0.0500000   0.0288675   0.3103448), wk =   0.0041580
        k(  286) = (   0.0625000   0.0360844   0.3103448), wk =   0.0041580
        k(  287) = (   0.0750000   0.0433013   0.3103448), wk =   0.0041580
        k(  288) = (   0.0875000   0.0505181   0.3103448), wk =   0.0041580
        k(  289) = (   0.1000000   0.0577350   0.3103448), wk =   0.0041580
        k(  290) = (   0.1125000   0.0649519   0.3103448), wk =   0.0041580
        k(  291) = (   0.1250000   0.0721688   0.3103448), wk =   0.0041580
        k(  292) = (   0.1375000   0.0793857   0.3103448), wk =   0.0041580
        k(  293) = (   0.1500000   0.0866025   0.3103448), wk =   0.0041580
        k(  294) = (   0.1625000   0.0938194   0.3103448), wk =   0.0041580
        k(  295) = (   0.1750000   0.1010363   0.3103448), wk =   0.0041580
        k(  296) = (   0.1875000   0.1082532   0.3103448), wk =   0.0041580
        k(  297) = (   0.2000000   0.1154701   0.3103448), wk =   0.0041580
        k(  298) = (   0.2125000   0.1226869   0.3103448), wk =   0.0041580
        k(  299) = (   0.2250000   0.1299038   0.3103448), wk =   0.0041580
        k(  300) = (   0.2375000   0.1371207   0.3103448), wk =   0.0041580
        k(  301) = (   0.2500000   0.1443376   0.3103448), wk =   0.0041580
        k(  302) = (   0.2625000   0.1515544   0.3103448), wk =   0.0041580
        k(  303) = (   0.2750000   0.1587713   0.3103448), wk =   0.0041580
        k(  304) = (   0.2875000   0.1659882   0.3103448), wk =   0.0041580
        k(  305) = (   0.3000000   0.1732051   0.3103448), wk =   0.0041580
        k(  306) = (   0.3125000   0.1804220   0.3103448), wk =   0.0041580
        k(  307) = (   0.3250000   0.1876388   0.3103448), wk =   0.0041580
        k(  308) = (   0.3375000   0.1948557   0.3103448), wk =   0.0041580
        k(  309) = (   0.3500000   0.2020726   0.3103448), wk =   0.0041580
        k(  310) = (   0.3625000   0.2092895   0.3103448), wk =   0.0041580
        k(  311) = (   0.3750000   0.2165064   0.3103448), wk =   0.0041580
        k(  312) = (   0.3875000   0.2237232   0.3103448), wk =   0.0041580
        k(  313) = (   0.4000000   0.2309401   0.3103448), wk =   0.0041580
        k(  314) = (   0.4125000   0.2381570   0.3103448), wk =   0.0041580
        k(  315) = (   0.4250000   0.2453739   0.3103448), wk =   0.0041580
        k(  316) = (   0.4375000   0.2525907   0.3103448), wk =   0.0041580
        k(  317) = (   0.4500000   0.2598076   0.3103448), wk =   0.0041580
        k(  318) = (   0.4625000   0.2670245   0.3103448), wk =   0.0041580
        k(  319) = (   0.4750000   0.2742414   0.3103448), wk =   0.0041580
        k(  320) = (   0.4875000   0.2814583   0.3103448), wk =   0.0041580
        k(  321) = (   0.5000000   0.2886751   0.3103448), wk =   0.0041580
        k(  322) = (   0.5000000   0.3031089   0.3103448), wk =   0.0041580
        k(  323) = (   0.5000000   0.3175426   0.3103448), wk =   0.0041580
        k(  324) = (   0.5000000   0.3319764   0.3103448), wk =   0.0041580
        k(  325) = (   0.5000000   0.3464102   0.3103448), wk =   0.0041580
        k(  326) = (   0.5000000   0.3608439   0.3103448), wk =   0.0041580
        k(  327) = (   0.5000000   0.3752777   0.3103448), wk =   0.0041580
        k(  328) = (   0.5000000   0.3897114   0.3103448), wk =   0.0041580
        k(  329) = (   0.5000000   0.4041452   0.3103448), wk =   0.0041580
        k(  330) = (   0.5000000   0.4185789   0.3103448), wk =   0.0041580
        k(  331) = (   0.5000000   0.4330127   0.3103448), wk =   0.0041580
        k(  332) = (   0.5000000   0.4474465   0.3103448), wk =   0.0041580
        k(  333) = (   0.5000000   0.4618802   0.3103448), wk =   0.0041580
        k(  334) = (   0.5000000   0.4763140   0.3103448), wk =   0.0041580
        k(  335) = (   0.5000000   0.4907477   0.3103448), wk =   0.0041580
        k(  336) = (   0.5000000   0.5051815   0.3103448), wk =   0.0041580
        k(  337) = (   0.5000000   0.5196152   0.3103448), wk =   0.0041580
        k(  338) = (   0.5000000   0.5340490   0.3103448), wk =   0.0041580
        k(  339) = (   0.5000000   0.5484828   0.3103448), wk =   0.0041580
        k(  340) = (   0.5000000   0.5629165   0.3103448), wk =   0.0041580
        k(  341) = (   0.5000000   0.5773503   0.3103448), wk =   0.0041580
        k(  342) = (   0.5000000   0.5917840   0.3103448), wk =   0.0041580
        k(  343) = (   0.5000000   0.6062178   0.3103448), wk =   0.0041580
        k(  344) = (   0.5000000   0.6206515   0.3103448), wk =   0.0041580
        k(  345) = (   0.5000000   0.6350853   0.3103448), wk =   0.0041580
        k(  346) = (   0.5000000   0.6495191   0.3103448), wk =   0.0041580
        k(  347) = (   0.5000000   0.6639528   0.3103448), wk =   0.0041580
        k(  348) = (   0.5000000   0.6783866   0.3103448), wk =   0.0041580
        k(  349) = (   0.5000000   0.6928203   0.3103448), wk =   0.0041580
        k(  350) = (   0.5000000   0.7072541   0.3103448), wk =   0.0041580
        k(  351) = (   0.5000000   0.7216878   0.3103448), wk =   0.0041580
        k(  352) = (   0.5000000   0.7361216   0.3103448), wk =   0.0041580
        k(  353) = (   0.5000000   0.7505553   0.3103448), wk =   0.0041580
        k(  354) = (   0.5000000   0.7649891   0.3103448), wk =   0.0041580
        k(  355) = (   0.5000000   0.7794229   0.3103448), wk =   0.0041580
        k(  356) = (   0.5000000   0.7938566   0.3103448), wk =   0.0041580
        k(  357) = (   0.5000000   0.8082904   0.3103448), wk =   0.0041580
        k(  358) = (   0.5000000   0.8227241   0.3103448), wk =   0.0041580
        k(  359) = (   0.5000000   0.8371579   0.3103448), wk =   0.0041580
        k(  360) = (   0.5000000   0.8515916   0.3103448), wk =   0.0041580
        k(  361) = (   0.5000000   0.8660254   0.3103448), wk =   0.0041580
        k(  362) = (   0.4958333   0.8588085   0.3025862), wk =   0.0041580
        k(  363) = (   0.4916667   0.8515916   0.2948276), wk =   0.0041580
        k(  364) = (   0.4875000   0.8443748   0.2870690), wk =   0.0041580
        k(  365) = (   0.4833333   0.8371579   0.2793103), wk =   0.0041580
        k(  366) = (   0.4791667   0.8299410   0.2715517), wk =   0.0041580
        k(  367) = (   0.4750000   0.8227241   0.2637931), wk =   0.0041580
        k(  368) = (   0.4708333   0.8155073   0.2560345), wk =   0.0041580
        k(  369) = (   0.4666667   0.8082904   0.2482759), wk =   0.0041580
        k(  370) = (   0.4625000   0.8010735   0.2405172), wk =   0.0041580
        k(  371) = (   0.4583333   0.7938566   0.2327586), wk =   0.0041580
        k(  372) = (   0.4541667   0.7866397   0.2250000), wk =   0.0041580
        k(  373) = (   0.4500000   0.7794229   0.2172414), wk =   0.0041580
        k(  374) = (   0.4458333   0.7722060   0.2094828), wk =   0.0041580
        k(  375) = (   0.4416667   0.7649891   0.2017241), wk =   0.0041580
        k(  376) = (   0.4375000   0.7577722   0.1939655), wk =   0.0041580
        k(  377) = (   0.4333333   0.7505553   0.1862069), wk =   0.0041580
        k(  378) = (   0.4291667   0.7433385   0.1784483), wk =   0.0041580
        k(  379) = (   0.4250000   0.7361216   0.1706897), wk =   0.0041580
        k(  380) = (   0.4208333   0.7289047   0.1629310), wk =   0.0041580
        k(  381) = (   0.4166667   0.7216878   0.1551724), wk =   0.0041580
        k(  382) = (   0.4125000   0.7144710   0.1474138), wk =   0.0041580
        k(  383) = (   0.4083333   0.7072541   0.1396552), wk =   0.0041580
        k(  384) = (   0.4041667   0.7000372   0.1318966), wk =   0.0041580
        k(  385) = (   0.4000000   0.6928203   0.1241379), wk =   0.0041580
        k(  386) = (   0.3958333   0.6856034   0.1163793), wk =   0.0041580
        k(  387) = (   0.3916667   0.6783866   0.1086207), wk =   0.0041580
        k(  388) = (   0.3875000   0.6711697   0.1008621), wk =   0.0041580
        k(  389) = (   0.3833333   0.6639528   0.0931034), wk =   0.0041580
        k(  390) = (   0.3791667   0.6567359   0.0853448), wk =   0.0041580
        k(  391) = (   0.3750000   0.6495190   0.0775862), wk =   0.0041580
        k(  392) = (   0.3708333   0.6423022   0.0698276), wk =   0.0041580
        k(  393) = (   0.3666667   0.6350853   0.0620690), wk =   0.0041580
        k(  394) = (   0.3625000   0.6278684   0.0543103), wk =   0.0041580
        k(  395) = (   0.3583333   0.6206515   0.0465517), wk =   0.0041580
        k(  396) = (   0.3541667   0.6134347   0.0387931), wk =   0.0041580
        k(  397) = (   0.3500000   0.6062178   0.0310345), wk =   0.0041580
        k(  398) = (   0.3458333   0.5990009   0.0232759), wk =   0.0041580
        k(  399) = (   0.3416667   0.5917840   0.0155172), wk =   0.0041580
        k(  400) = (   0.3375000   0.5845671   0.0077586), wk =   0.0041580
        k(  401) = (   0.3333333   0.5773503   0.0000000), wk =   0.0041580
        k(  402) = (   0.3333333   0.5773503   0.0077586), wk =   0.0041580
        k(  403) = (   0.3333333   0.5773503   0.0155172), wk =   0.0041580
        k(  404) = (   0.3333333   0.5773503   0.0232759), wk =   0.0041580
        k(  405) = (   0.3333333   0.5773503   0.0310345), wk =   0.0041580
        k(  406) = (   0.3333333   0.5773503   0.0387931), wk =   0.0041580
        k(  407) = (   0.3333333   0.5773503   0.0465517), wk =   0.0041580
        k(  408) = (   0.3333333   0.5773503   0.0543103), wk =   0.0041580
        k(  409) = (   0.3333333   0.5773503   0.0620690), wk =   0.0041580
        k(  410) = (   0.3333333   0.5773503   0.0698276), wk =   0.0041580
        k(  411) = (   0.3333333   0.5773503   0.0775862), wk =   0.0041580
        k(  412) = (   0.3333333   0.5773503   0.0853448), wk =   0.0041580
        k(  413) = (   0.3333333   0.5773503   0.0931034), wk =   0.0041580
        k(  414) = (   0.3333333   0.5773503   0.1008621), wk =   0.0041580
        k(  415) = (   0.3333333   0.5773503   0.1086207), wk =   0.0041580
        k(  416) = (   0.3333333   0.5773503   0.1163793), wk =   0.0041580
        k(  417) = (   0.3333333   0.5773503   0.1241379), wk =   0.0041580
        k(  418) = (   0.3333333   0.5773503   0.1318966), wk =   0.0041580
        k(  419) = (   0.3333333   0.5773503   0.1396552), wk =   0.0041580
        k(  420) = (   0.3333333   0.5773503   0.1474138), wk =   0.0041580
        k(  421) = (   0.3333333   0.5773503   0.1551724), wk =   0.0041580
        k(  422) = (   0.3333333   0.5773503   0.1629310), wk =   0.0041580
        k(  423) = (   0.3333333   0.5773503   0.1706897), wk =   0.0041580
        k(  424) = (   0.3333333   0.5773503   0.1784483), wk =   0.0041580
        k(  425) = (   0.3333333   0.5773503   0.1862069), wk =   0.0041580
        k(  426) = (   0.3333333   0.5773503   0.1939655), wk =   0.0041580
        k(  427) = (   0.3333333   0.5773503   0.2017241), wk =   0.0041580
        k(  428) = (   0.3333333   0.5773503   0.2094828), wk =   0.0041580
        k(  429) = (   0.3333333   0.5773503   0.2172414), wk =   0.0041580
        k(  430) = (   0.3333333   0.5773503   0.2250000), wk =   0.0041580
        k(  431) = (   0.3333333   0.5773503   0.2327586), wk =   0.0041580
        k(  432) = (   0.3333333   0.5773503   0.2405172), wk =   0.0041580
        k(  433) = (   0.3333333   0.5773503   0.2482759), wk =   0.0041580
        k(  434) = (   0.3333333   0.5773503   0.2560345), wk =   0.0041580
        k(  435) = (   0.3333333   0.5773503   0.2637931), wk =   0.0041580
        k(  436) = (   0.3333333   0.5773503   0.2715517), wk =   0.0041580
        k(  437) = (   0.3333333   0.5773503   0.2793103), wk =   0.0041580
        k(  438) = (   0.3333333   0.5773503   0.2870690), wk =   0.0041580
        k(  439) = (   0.3333333   0.5773503   0.2948276), wk =   0.0041580
        k(  440) = (   0.3333333   0.5773503   0.3025862), wk =   0.0041580
        k(  441) = (   0.3333333   0.5773503   0.3103448), wk =   0.0041580
        k(  442) = (   0.3250000   0.5629165   0.3025862), wk =   0.0041580
        k(  443) = (   0.3166667   0.5484828   0.2948276), wk =   0.0041580
        k(  444) = (   0.3083333   0.5340490   0.2870690), wk =   0.0041580
        k(  445) = (   0.3000000   0.5196152   0.2793103), wk =   0.0041580
        k(  446) = (   0.2916667   0.5051815   0.2715517), wk =   0.0041580
        k(  447) = (   0.2833333   0.4907477   0.2637931), wk =   0.0041580
        k(  448) = (   0.2750000   0.4763140   0.2560345), wk =   0.0041580
        k(  449) = (   0.2666667   0.4618802   0.2482759), wk =   0.0041580
        k(  450) = (   0.2583333   0.4474465   0.2405172), wk =   0.0041580
        k(  451) = (   0.2500000   0.4330127   0.2327586), wk =   0.0041580
        k(  452) = (   0.2416667   0.4185789   0.2250000), wk =   0.0041580
        k(  453) = (   0.2333333   0.4041452   0.2172414), wk =   0.0041580
        k(  454) = (   0.2250000   0.3897114   0.2094828), wk =   0.0041580
        k(  455) = (   0.2166667   0.3752777   0.2017241), wk =   0.0041580
        k(  456) = (   0.2083333   0.3608439   0.1939655), wk =   0.0041580
        k(  457) = (   0.2000000   0.3464102   0.1862069), wk =   0.0041580
        k(  458) = (   0.1916667   0.3319764   0.1784483), wk =   0.0041580
        k(  459) = (   0.1833333   0.3175426   0.1706897), wk =   0.0041580
        k(  460) = (   0.1750000   0.3031089   0.1629310), wk =   0.0041580
        k(  461) = (   0.1666667   0.2886751   0.1551724), wk =   0.0041580
        k(  462) = (   0.1583333   0.2742414   0.1474138), wk =   0.0041580
        k(  463) = (   0.1500000   0.2598076   0.1396552), wk =   0.0041580
        k(  464) = (   0.1416667   0.2453739   0.1318966), wk =   0.0041580
        k(  465) = (   0.1333333   0.2309401   0.1241379), wk =   0.0041580
        k(  466) = (   0.1250000   0.2165063   0.1163793), wk =   0.0041580
        k(  467) = (   0.1166667   0.2020726   0.1086207), wk =   0.0041580
        k(  468) = (   0.1083333   0.1876388   0.1008621), wk =   0.0041580
        k(  469) = (   0.1000000   0.1732051   0.0931034), wk =   0.0041580
        k(  470) = (   0.0916667   0.1587713   0.0853448), wk =   0.0041580
        k(  471) = (   0.0833333   0.1443376   0.0775862), wk =   0.0041580
        k(  472) = (   0.0750000   0.1299038   0.0698276), wk =   0.0041580
        k(  473) = (   0.0666667   0.1154701   0.0620690), wk =   0.0041580
        k(  474) = (   0.0583333   0.1010363   0.0543103), wk =   0.0041580
        k(  475) = (   0.0500000   0.0866025   0.0465517), wk =   0.0041580
        k(  476) = (   0.0416667   0.0721688   0.0387931), wk =   0.0041580
        k(  477) = (   0.0333333   0.0577350   0.0310345), wk =   0.0041580
        k(  478) = (   0.0250000   0.0433013   0.0232759), wk =   0.0041580
        k(  479) = (   0.0166667   0.0288675   0.0155172), wk =   0.0041580
        k(  480) = (   0.0083333   0.0144338   0.0077586), wk =   0.0041580
        k(  481) = (   0.0000000   0.0000000   0.0000000), wk =   0.0041580

                       cryst. coord.
        k(    1) = (   0.0000000   0.0000000   0.0000000), wk =   0.0041580
        k(    2) = (   0.0125000   0.0000000   0.0000000), wk =   0.0041580
        k(    3) = (   0.0250000   0.0000000   0.0000000), wk =   0.0041580
        k(    4) = (   0.0375000   0.0000000   0.0000000), wk =   0.0041580
        k(    5) = (   0.0500000   0.0000000   0.0000000), wk =   0.0041580
        k(    6) = (   0.0625000   0.0000000   0.0000000), wk =   0.0041580
        k(    7) = (   0.0750000   0.0000000   0.0000000), wk =   0.0041580
        k(    8) = (   0.0875000   0.0000000   0.0000000), wk =   0.0041580
        k(    9) = (   0.1000000   0.0000000   0.0000000), wk =   0.0041580
        k(   10) = (   0.1125000   0.0000000   0.0000000), wk =   0.0041580
        k(   11) = (   0.1250000   0.0000000   0.0000000), wk =   0.0041580
        k(   12) = (   0.1375000   0.0000000   0.0000000), wk =   0.0041580
        k(   13) = (   0.1500000   0.0000000   0.0000000), wk =   0.0041580
        k(   14) = (   0.1625000   0.0000000   0.0000000), wk =   0.0041580
        k(   15) = (   0.1750000   0.0000000   0.0000000), wk =   0.0041580
        k(   16) = (   0.1875000   0.0000000   0.0000000), wk =   0.0041580
        k(   17) = (   0.2000000   0.0000000   0.0000000), wk =   0.0041580
        k(   18) = (   0.2125000   0.0000000   0.0000000), wk =   0.0041580
        k(   19) = (   0.2250000   0.0000000   0.0000000), wk =   0.0041580
        k(   20) = (   0.2375000   0.0000000   0.0000000), wk =   0.0041580
        k(   21) = (   0.2500000   0.0000000   0.0000000), wk =   0.0041580
        k(   22) = (   0.2625000   0.0000000   0.0000000), wk =   0.0041580
        k(   23) = (   0.2750000   0.0000000   0.0000000), wk =   0.0041580
        k(   24) = (   0.2875000   0.0000000   0.0000000), wk =   0.0041580
        k(   25) = (   0.3000000   0.0000000   0.0000000), wk =   0.0041580
        k(   26) = (   0.3125000   0.0000000   0.0000000), wk =   0.0041580
        k(   27) = (   0.3250000   0.0000000   0.0000000), wk =   0.0041580
        k(   28) = (   0.3375000   0.0000000   0.0000000), wk =   0.0041580
        k(   29) = (   0.3500000   0.0000000   0.0000000), wk =   0.0041580
        k(   30) = (   0.3625000   0.0000000   0.0000000), wk =   0.0041580
        k(   31) = (   0.3750000   0.0000000   0.0000000), wk =   0.0041580
        k(   32) = (   0.3875000   0.0000000   0.0000000), wk =   0.0041580
        k(   33) = (   0.4000000   0.0000000   0.0000000), wk =   0.0041580
        k(   34) = (   0.4125000   0.0000000   0.0000000), wk =   0.0041580
        k(   35) = (   0.4250000   0.0000000   0.0000000), wk =   0.0041580
        k(   36) = (   0.4375000  -0.0000000   0.0000000), wk =   0.0041580
        k(   37) = (   0.4500000   0.0000000   0.0000000), wk =   0.0041580
        k(   38) = (   0.4625000   0.0000000   0.0000000), wk =   0.0041580
        k(   39) = (   0.4750000   0.0000000   0.0000000), wk =   0.0041580
        k(   40) = (   0.4875000   0.0000000   0.0000000), wk =   0.0041580
        k(   41) = (   0.5000000   0.0000000   0.0000000), wk =   0.0041580
        k(   42) = (   0.4958333   0.0083333   0.0000000), wk =   0.0041580
        k(   43) = (   0.4916667   0.0166667   0.0000000), wk =   0.0041580
        k(   44) = (   0.4875000   0.0250000   0.0000000), wk =   0.0041580
        k(   45) = (   0.4833333   0.0333333   0.0000000), wk =   0.0041580
        k(   46) = (   0.4791667   0.0416667   0.0000000), wk =   0.0041580
        k(   47) = (   0.4750000   0.0500000   0.0000000), wk =   0.0041580
        k(   48) = (   0.4708333   0.0583333   0.0000000), wk =   0.0041580
        k(   49) = (   0.4666667   0.0666667   0.0000000), wk =   0.0041580
        k(   50) = (   0.4625000   0.0750000   0.0000000), wk =   0.0041580
        k(   51) = (   0.4583333   0.0833333   0.0000000), wk =   0.0041580
        k(   52) = (   0.4541667   0.0916667   0.0000000), wk =   0.0041580
        k(   53) = (   0.4500000   0.1000000   0.0000000), wk =   0.0041580
        k(   54) = (   0.4458333   0.1083333   0.0000000), wk =   0.0041580
        k(   55) = (   0.4416667   0.1166667   0.0000000), wk =   0.0041580
        k(   56) = (   0.4375000   0.1250000   0.0000000), wk =   0.0041580
        k(   57) = (   0.4333333   0.1333333   0.0000000), wk =   0.0041580
        k(   58) = (   0.4291667   0.1416667   0.0000000), wk =   0.0041580
        k(   59) = (   0.4250000   0.1500000   0.0000000), wk =   0.0041580
        k(   60) = (   0.4208333   0.1583333   0.0000000), wk =   0.0041580
        k(   61) = (   0.4166667   0.1666667   0.0000000), wk =   0.0041580
        k(   62) = (   0.4125000   0.1750000   0.0000000), wk =   0.0041580
        k(   63) = (   0.4083333   0.1833333   0.0000000), wk =   0.0041580
        k(   64) = (   0.4041667   0.1916667   0.0000000), wk =   0.0041580
        k(   65) = (   0.4000000   0.2000000   0.0000000), wk =   0.0041580
        k(   66) = (   0.3958333   0.2083333   0.0000000), wk =   0.0041580
        k(   67) = (   0.3916667   0.2166667   0.0000000), wk =   0.0041580
        k(   68) = (   0.3875000   0.2250000   0.0000000), wk =   0.0041580
        k(   69) = (   0.3833333   0.2333333   0.0000000), wk =   0.0041580
        k(   70) = (   0.3791667   0.2416667   0.0000000), wk =   0.0041580
        k(   71) = (   0.3750000   0.2500000   0.0000000), wk =   0.0041580
        k(   72) = (   0.3708333   0.2583333   0.0000000), wk =   0.0041580
        k(   73) = (   0.3666667   0.2666667   0.0000000), wk =   0.0041580
        k(   74) = (   0.3625000   0.2750000   0.0000000), wk =   0.0041580
        k(   75) = (   0.3583333   0.2833333   0.0000000), wk =   0.0041580
        k(   76) = (   0.3541667   0.2916667   0.0000000), wk =   0.0041580
        k(   77) = (   0.3500000   0.3000000   0.0000000), wk =   0.0041580
        k(   78) = (   0.3458333   0.3083333   0.0000000), wk =   0.0041580
        k(   79) = (   0.3416667   0.3166667   0.0000000), wk =   0.0041580
        k(   80) = (   0.3375000   0.3250000   0.0000000), wk =   0.0041580
        k(   81) = (   0.3333333   0.3333333   0.0000000), wk =   0.0041580
        k(   82) = (   0.3250000   0.3250000   0.0000000), wk =   0.0041580
        k(   83) = (   0.3166667   0.3166667   0.0000000), wk =   0.0041580
        k(   84) = (   0.3083333   0.3083333   0.0000000), wk =   0.0041580
        k(   85) = (   0.3000000   0.3000000   0.0000000), wk =   0.0041580
        k(   86) = (   0.2916667   0.2916667   0.0000000), wk =   0.0041580
        k(   87) = (   0.2833333   0.2833333   0.0000000), wk =   0.0041580
        k(   88) = (   0.2750000   0.2750000   0.0000000), wk =   0.0041580
        k(   89) = (   0.2666667   0.2666667   0.0000000), wk =   0.0041580
        k(   90) = (   0.2583333   0.2583333   0.0000000), wk =   0.0041580
        k(   91) = (   0.2500000   0.2500000   0.0000000), wk =   0.0041580
        k(   92) = (   0.2416667   0.2416667   0.0000000), wk =   0.0041580
        k(   93) = (   0.2333333   0.2333333   0.0000000), wk =   0.0041580
        k(   94) = (   0.2250000   0.2250000   0.0000000), wk =   0.0041580
        k(   95) = (   0.2166667   0.2166667   0.0000000), wk =   0.0041580
        k(   96) = (   0.2083333   0.2083333   0.0000000), wk =   0.0041580
        k(   97) = (   0.2000000   0.2000000   0.0000000), wk =   0.0041580
        k(   98) = (   0.1916667   0.1916667   0.0000000), wk =   0.0041580
        k(   99) = (   0.1833333   0.1833333   0.0000000), wk =   0.0041580
        k(  100) = (   0.1750000   0.1750000   0.0000000), wk =   0.0041580
        k(  101) = (   0.1666667   0.1666667   0.0000000), wk =   0.0041580
        k(  102) = (   0.1583333   0.1583333   0.0000000), wk =   0.0041580
        k(  103) = (   0.1500000   0.1500000   0.0000000), wk =   0.0041580
        k(  104) = (   0.1416667   0.1416667   0.0000000), wk =   0.0041580
        k(  105) = (   0.1333333   0.1333333   0.0000000), wk =   0.0041580
        k(  106) = (   0.1250000   0.1250000   0.0000000), wk =   0.0041580
        k(  107) = (   0.1166667   0.1166667   0.0000000), wk =   0.0041580
        k(  108) = (   0.1083333   0.1083333   0.0000000), wk =   0.0041580
        k(  109) = (   0.1000000   0.1000000   0.0000000), wk =   0.0041580
        k(  110) = (   0.0916667   0.0916667   0.0000000), wk =   0.0041580
        k(  111) = (   0.0833333   0.0833333   0.0000000), wk =   0.0041580
        k(  112) = (   0.0750000   0.0750000   0.0000000), wk =   0.0041580
        k(  113) = (   0.0666667   0.0666667   0.0000000), wk =   0.0041580
        k(  114) = (   0.0583333   0.0583333   0.0000000), wk =   0.0041580
        k(  115) = (   0.0500000   0.0500000   0.0000000), wk =   0.0041580
        k(  116) = (   0.0416667   0.0416667   0.0000000), wk =   0.0041580
        k(  117) = (   0.0333333   0.0333333   0.0000000), wk =   0.0041580
        k(  118) = (   0.0250000   0.0250000   0.0000000), wk =   0.0041580
        k(  119) = (   0.0166667   0.0166667   0.0000000), wk =   0.0041580
        k(  120) = (   0.0083333   0.0083333   0.0000000), wk =   0.0041580
        k(  121) = (   0.0000000   0.0000000   0.0000000), wk =   0.0041580
        k(  122) = (   0.0000000   0.0000000   0.0125000), wk =   0.0041580
        k(  123) = (   0.0000000   0.0000000   0.0250000), wk =   0.0041580
        k(  124) = (   0.0000000   0.0000000   0.0375000), wk =   0.0041580
        k(  125) = (   0.0000000   0.0000000   0.0500000), wk =   0.0041580
        k(  126) = (   0.0000000   0.0000000   0.0625000), wk =   0.0041580
        k(  127) = (   0.0000000   0.0000000   0.0750000), wk =   0.0041580
        k(  128) = (   0.0000000   0.0000000   0.0875000), wk =   0.0041580
        k(  129) = (   0.0000000   0.0000000   0.1000000), wk =   0.0041580
        k(  130) = (   0.0000000   0.0000000   0.1125000), wk =   0.0041580
        k(  131) = (   0.0000000   0.0000000   0.1250000), wk =   0.0041580
        k(  132) = (   0.0000000   0.0000000   0.1375000), wk =   0.0041580
        k(  133) = (   0.0000000   0.0000000   0.1500000), wk =   0.0041580
        k(  134) = (   0.0000000   0.0000000   0.1625000), wk =   0.0041580
        k(  135) = (   0.0000000   0.0000000   0.1750000), wk =   0.0041580
        k(  136) = (   0.0000000   0.0000000   0.1875000), wk =   0.0041580
        k(  137) = (   0.0000000   0.0000000   0.2000000), wk =   0.0041580
        k(  138) = (   0.0000000   0.0000000   0.2125000), wk =   0.0041580
        k(  139) = (   0.0000000   0.0000000   0.2250000), wk =   0.0041580
        k(  140) = (   0.0000000   0.0000000   0.2375000), wk =   0.0041580
        k(  141) = (   0.0000000   0.0000000   0.2500000), wk =   0.0041580
        k(  142) = (   0.0000000   0.0000000   0.2625000), wk =   0.0041580
        k(  143) = (   0.0000000   0.0000000   0.2750000), wk =   0.0041580
        k(  144) = (   0.0000000   0.0000000   0.2875000), wk =   0.0041580
        k(  145) = (   0.0000000   0.0000000   0.3000000), wk =   0.0041580
        k(  146) = (   0.0000000   0.0000000   0.3125000), wk =   0.0041580
        k(  147) = (   0.0000000   0.0000000   0.3250000), wk =   0.0041580
        k(  148) = (   0.0000000   0.0000000   0.3375000), wk =   0.0041580
        k(  149) = (   0.0000000   0.0000000   0.3500000), wk =   0.0041580
        k(  150) = (   0.0000000   0.0000000   0.3625000), wk =   0.0041580
        k(  151) = (   0.0000000   0.0000000   0.3750000), wk =   0.0041580
        k(  152) = (   0.0000000   0.0000000   0.3875000), wk =   0.0041580
        k(  153) = (   0.0000000   0.0000000   0.4000000), wk =   0.0041580
        k(  154) = (   0.0000000   0.0000000   0.4125000), wk =   0.0041580
        k(  155) = (   0.0000000   0.0000000   0.4250000), wk =   0.0041580
        k(  156) = (   0.0000000   0.0000000   0.4375000), wk =   0.0041580
        k(  157) = (   0.0000000   0.0000000   0.4500000), wk =   0.0041580
        k(  158) = (   0.0000000   0.0000000   0.4625000), wk =   0.0041580
        k(  159) = (   0.0000000   0.0000000   0.4750000), wk =   0.0041580
        k(  160) = (   0.0000000   0.0000000   0.4875000), wk =   0.0041580
        k(  161) = (   0.0000000   0.0000000   0.5000000), wk =   0.0041580
        k(  162) = (   0.0125000   0.0000000   0.5000000), wk =   0.0041580
        k(  163) = (   0.0250000   0.0000000   0.5000000), wk =   0.0041580
        k(  164) = (   0.0375000   0.0000000   0.5000000), wk =   0.0041580
        k(  165) = (   0.0500000   0.0000000   0.5000000), wk =   0.0041580
        k(  166) = (   0.0625000   0.0000000   0.5000000), wk =   0.0041580
        k(  167) = (   0.0750000   0.0000000   0.5000000), wk =   0.0041580
        k(  168) = (   0.0875000   0.0000000   0.5000000), wk =   0.0041580
        k(  169) = (   0.1000000   0.0000000   0.5000000), wk =   0.0041580
        k(  170) = (   0.1125000   0.0000000   0.5000000), wk =   0.0041580
        k(  171) = (   0.1250000   0.0000000   0.5000000), wk =   0.0041580
        k(  172) = (   0.1375000   0.0000000   0.5000000), wk =   0.0041580
        k(  173) = (   0.1500000   0.0000000   0.5000000), wk =   0.0041580
        k(  174) = (   0.1625000   0.0000000   0.5000000), wk =   0.0041580
        k(  175) = (   0.1750000   0.0000000   0.5000000), wk =   0.0041580
        k(  176) = (   0.1875000   0.0000000   0.5000000), wk =   0.0041580
        k(  177) = (   0.2000000   0.0000000   0.5000000), wk =   0.0041580
        k(  178) = (   0.2125000   0.0000000   0.5000000), wk =   0.0041580
        k(  179) = (   0.2250000   0.0000000   0.5000000), wk =   0.0041580
        k(  180) = (   0.2375000   0.0000000   0.5000000), wk =   0.0041580
        k(  181) = (   0.2500000   0.0000000   0.5000000), wk =   0.0041580
        k(  182) = (   0.2625000   0.0000000   0.5000000), wk =   0.0041580
        k(  183) = (   0.2750000   0.0000000   0.5000000), wk =   0.0041580
        k(  184) = (   0.2875000   0.0000000   0.5000000), wk =   0.0041580
        k(  185) = (   0.3000000   0.0000000   0.5000000), wk =   0.0041580
        k(  186) = (   0.3125000   0.0000000   0.5000000), wk =   0.0041580
        k(  187) = (   0.3250000   0.0000000   0.5000000), wk =   0.0041580
        k(  188) = (   0.3375000   0.0000000   0.5000000), wk =   0.0041580
        k(  189) = (   0.3500000   0.0000000   0.5000000), wk =   0.0041580
        k(  190) = (   0.3625000   0.0000000   0.5000000), wk =   0.0041580
        k(  191) = (   0.3750000   0.0000000   0.5000000), wk =   0.0041580
        k(  192) = (   0.3875000   0.0000000   0.5000000), wk =   0.0041580
        k(  193) = (   0.4000000   0.0000000   0.5000000), wk =   0.0041580
        k(  194) = (   0.4125000   0.0000000   0.5000000), wk =   0.0041580
        k(  195) = (   0.4250000   0.0000000   0.5000000), wk =   0.0041580
        k(  196) = (   0.4375000  -0.0000000   0.5000000), wk =   0.0041580
        k(  197) = (   0.4500000   0.0000000   0.5000000), wk =   0.0041580
        k(  198) = (   0.4625000   0.0000000   0.5000000), wk =   0.0041580
        k(  199) = (   0.4750000   0.0000000   0.5000000), wk =   0.0041580
        k(  200) = (   0.4875000   0.0000000   0.5000000), wk =   0.0041580
        k(  201) = (   0.5000000   0.0000000   0.5000000), wk =   0.0041580
        k(  202) = (   0.4958333   0.0083333   0.5000000), wk =   0.0041580
        k(  203) = (   0.4916667   0.0166667   0.5000000), wk =   0.0041580
        k(  204) = (   0.4875000   0.0250000   0.5000000), wk =   0.0041580
        k(  205) = (   0.4833333   0.0333333   0.5000000), wk =   0.0041580
        k(  206) = (   0.4791667   0.0416667   0.5000000), wk =   0.0041580
        k(  207) = (   0.4750000   0.0500000   0.5000000), wk =   0.0041580
        k(  208) = (   0.4708333   0.0583333   0.5000000), wk =   0.0041580
        k(  209) = (   0.4666667   0.0666667   0.5000000), wk =   0.0041580
        k(  210) = (   0.4625000   0.0750000   0.5000000), wk =   0.0041580
        k(  211) = (   0.4583333   0.0833333   0.5000000), wk =   0.0041580
        k(  212) = (   0.4541667   0.0916667   0.5000000), wk =   0.0041580
        k(  213) = (   0.4500000   0.1000000   0.5000000), wk =   0.0041580
        k(  214) = (   0.4458333   0.1083333   0.5000000), wk =   0.0041580
        k(  215) = (   0.4416667   0.1166667   0.5000000), wk =   0.0041580
        k(  216) = (   0.4375000   0.1250000   0.5000000), wk =   0.0041580
        k(  217) = (   0.4333333   0.1333333   0.5000000), wk =   0.0041580
        k(  218) = (   0.4291667   0.1416667   0.5000000), wk =   0.0041580
        k(  219) = (   0.4250000   0.1500000   0.5000000), wk =   0.0041580
        k(  220) = (   0.4208333   0.1583333   0.5000000), wk =   0.0041580
        k(  221) = (   0.4166667   0.1666667   0.5000000), wk =   0.0041580
        k(  222) = (   0.4125000   0.1750000   0.5000000), wk =   0.0041580
        k(  223) = (   0.4083333   0.1833333   0.5000000), wk =   0.0041580
        k(  224) = (   0.4041667   0.1916667   0.5000000), wk =   0.0041580
        k(  225) = (   0.4000000   0.2000000   0.5000000), wk =   0.0041580
        k(  226) = (   0.3958333   0.2083333   0.5000000), wk =   0.0041580
        k(  227) = (   0.3916667   0.2166667   0.5000000), wk =   0.0041580
        k(  228) = (   0.3875000   0.2250000   0.5000000), wk =   0.0041580
        k(  229) = (   0.3833333   0.2333333   0.5000000), wk =   0.0041580
        k(  230) = (   0.3791667   0.2416667   0.5000000), wk =   0.0041580
        k(  231) = (   0.3750000   0.2500000   0.5000000), wk =   0.0041580
        k(  232) = (   0.3708333   0.2583333   0.5000000), wk =   0.0041580
        k(  233) = (   0.3666667   0.2666667   0.5000000), wk =   0.0041580
        k(  234) = (   0.3625000   0.2750000   0.5000000), wk =   0.0041580
        k(  235) = (   0.3583333   0.2833333   0.5000000), wk =   0.0041580
        k(  236) = (   0.3541667   0.2916667   0.5000000), wk =   0.0041580
        k(  237) = (   0.3500000   0.3000000   0.5000000), wk =   0.0041580
        k(  238) = (   0.3458333   0.3083333   0.5000000), wk =   0.0041580
        k(  239) = (   0.3416667   0.3166667   0.5000000), wk =   0.0041580
        k(  240) = (   0.3375000   0.3250000   0.5000000), wk =   0.0041580
        k(  241) = (   0.3333333   0.3333333   0.5000000), wk =   0.0041580
        k(  242) = (   0.3250000   0.3250000   0.5000000), wk =   0.0041580
        k(  243) = (   0.3166667   0.3166667   0.5000000), wk =   0.0041580
        k(  244) = (   0.3083333   0.3083333   0.5000000), wk =   0.0041580
        k(  245) = (   0.3000000   0.3000000   0.5000000), wk =   0.0041580
        k(  246) = (   0.2916667   0.2916667   0.5000000), wk =   0.0041580
        k(  247) = (   0.2833333   0.2833333   0.5000000), wk =   0.0041580
        k(  248) = (   0.2750000   0.2750000   0.5000000), wk =   0.0041580
        k(  249) = (   0.2666667   0.2666667   0.5000000), wk =   0.0041580
        k(  250) = (   0.2583333   0.2583333   0.5000000), wk =   0.0041580
        k(  251) = (   0.2500000   0.2500000   0.5000000), wk =   0.0041580
        k(  252) = (   0.2416667   0.2416667   0.5000000), wk =   0.0041580
        k(  253) = (   0.2333333   0.2333333   0.5000000), wk =   0.0041580
        k(  254) = (   0.2250000   0.2250000   0.5000000), wk =   0.0041580
        k(  255) = (   0.2166667   0.2166667   0.5000000), wk =   0.0041580
        k(  256) = (   0.2083333   0.2083333   0.5000000), wk =   0.0041580
        k(  257) = (   0.2000000   0.2000000   0.5000000), wk =   0.0041580
        k(  258) = (   0.1916667   0.1916667   0.5000000), wk =   0.0041580
        k(  259) = (   0.1833333   0.1833333   0.5000000), wk =   0.0041580
        k(  260) = (   0.1750000   0.1750000   0.5000000), wk =   0.0041580
        k(  261) = (   0.1666667   0.1666667   0.5000000), wk =   0.0041580
        k(  262) = (   0.1583333   0.1583333   0.5000000), wk =   0.0041580
        k(  263) = (   0.1500000   0.1500000   0.5000000), wk =   0.0041580
        k(  264) = (   0.1416667   0.1416667   0.5000000), wk =   0.0041580
        k(  265) = (   0.1333333   0.1333333   0.5000000), wk =   0.0041580
        k(  266) = (   0.1250000   0.1250000   0.5000000), wk =   0.0041580
        k(  267) = (   0.1166667   0.1166667   0.5000000), wk =   0.0041580
        k(  268) = (   0.1083333   0.1083333   0.5000000), wk =   0.0041580
        k(  269) = (   0.1000000   0.1000000   0.5000000), wk =   0.0041580
        k(  270) = (   0.0916667   0.0916667   0.5000000), wk =   0.0041580
        k(  271) = (   0.0833333   0.0833333   0.5000000), wk =   0.0041580
        k(  272) = (   0.0750000   0.0750000   0.5000000), wk =   0.0041580
        k(  273) = (   0.0666667   0.0666667   0.5000000), wk =   0.0041580
        k(  274) = (   0.0583333   0.0583333   0.5000000), wk =   0.0041580
        k(  275) = (   0.0500000   0.0500000   0.5000000), wk =   0.0041580
        k(  276) = (   0.0416667   0.0416667   0.5000000), wk =   0.0041580
        k(  277) = (   0.0333333   0.0333333   0.5000000), wk =   0.0041580
        k(  278) = (   0.0250000   0.0250000   0.5000000), wk =   0.0041580
        k(  279) = (   0.0166667   0.0166667   0.5000000), wk =   0.0041580
        k(  280) = (   0.0083333   0.0083333   0.5000000), wk =   0.0041580
        k(  281) = (   0.0000000   0.0000000   0.5000000), wk =   0.0041580
        k(  282) = (   0.0125000   0.0000000   0.5000000), wk =   0.0041580
        k(  283) = (   0.0250000   0.0000000   0.5000000), wk =   0.0041580
        k(  284) = (   0.0375000   0.0000000   0.5000000), wk =   0.0041580
        k(  285) = (   0.0500000   0.0000000   0.5000000), wk =   0.0041580
        k(  286) = (   0.0625000   0.0000000   0.5000000), wk =   0.0041580
        k(  287) = (   0.0750000   0.0000000   0.5000000), wk =   0.0041580
        k(  288) = (   0.0875000   0.0000000   0.5000000), wk =   0.0041580
        k(  289) = (   0.1000000   0.0000000   0.5000000), wk =   0.0041580
        k(  290) = (   0.1125000   0.0000000   0.5000000), wk =   0.0041580
        k(  291) = (   0.1250000   0.0000000   0.5000000), wk =   0.0041580
        k(  292) = (   0.1375000   0.0000000   0.5000000), wk =   0.0041580
        k(  293) = (   0.1500000   0.0000000   0.5000000), wk =   0.0041580
        k(  294) = (   0.1625000   0.0000000   0.5000000), wk =   0.0041580
        k(  295) = (   0.1750000   0.0000000   0.5000000), wk =   0.0041580
        k(  296) = (   0.1875000   0.0000000   0.5000000), wk =   0.0041580
        k(  297) = (   0.2000000   0.0000000   0.5000000), wk =   0.0041580
        k(  298) = (   0.2125000   0.0000000   0.5000000), wk =   0.0041580
        k(  299) = (   0.2250000   0.0000000   0.5000000), wk =   0.0041580
        k(  300) = (   0.2375000   0.0000000   0.5000000), wk =   0.0041580
        k(  301) = (   0.2500000   0.0000000   0.5000000), wk =   0.0041580
        k(  302) = (   0.2625000   0.0000000   0.5000000), wk =   0.0041580
        k(  303) = (   0.2750000   0.0000000   0.5000000), wk =   0.0041580
        k(  304) = (   0.2875000   0.0000000   0.5000000), wk =   0.0041580
        k(  305) = (   0.3000000   0.0000000   0.5000000), wk =   0.0041580
        k(  306) = (   0.3125000   0.0000000   0.5000000), wk =   0.0041580
        k(  307) = (   0.3250000   0.0000000   0.5000000), wk =   0.0041580
        k(  308) = (   0.3375000   0.0000000   0.5000000), wk =   0.0041580
        k(  309) = (   0.3500000   0.0000000   0.5000000), wk =   0.0041580
        k(  310) = (   0.3625000   0.0000000   0.5000000), wk =   0.0041580
        k(  311) = (   0.3750000   0.0000000   0.5000000), wk =   0.0041580
        k(  312) = (   0.3875000   0.0000000   0.5000000), wk =   0.0041580
        k(  313) = (   0.4000000   0.0000000   0.5000000), wk =   0.0041580
        k(  314) = (   0.4125000   0.0000000   0.5000000), wk =   0.0041580
        k(  315) = (   0.4250000   0.0000000   0.5000000), wk =   0.0041580
        k(  316) = (   0.4375000  -0.0000000   0.5000000), wk =   0.0041580
        k(  317) = (   0.4500000   0.0000000   0.5000000), wk =   0.0041580
        k(  318) = (   0.4625000   0.0000000   0.5000000), wk =   0.0041580
        k(  319) = (   0.4750000   0.0000000   0.5000000), wk =   0.0041580
        k(  320) = (   0.4875000   0.0000000   0.5000000), wk =   0.0041580
        k(  321) = (   0.5000000   0.0000000   0.5000000), wk =   0.0041580
        k(  322) = (   0.5000000   0.0125000   0.5000000), wk =   0.0041580
        k(  323) = (   0.5000000   0.0250000   0.5000000), wk =   0.0041580
        k(  324) = (   0.5000000   0.0375000   0.5000000), wk =   0.0041580
        k(  325) = (   0.5000000   0.0500000   0.5000000), wk =   0.0041580
        k(  326) = (   0.5000000   0.0625000   0.5000000), wk =   0.0041580
        k(  327) = (   0.5000000   0.0750000   0.5000000), wk =   0.0041580
        k(  328) = (   0.5000000   0.0875000   0.5000000), wk =   0.0041580
        k(  329) = (   0.5000000   0.1000000   0.5000000), wk =   0.0041580
        k(  330) = (   0.5000000   0.1125000   0.5000000), wk =   0.0041580
        k(  331) = (   0.5000000   0.1250000   0.5000000), wk =   0.0041580
        k(  332) = (   0.5000000   0.1375000   0.5000000), wk =   0.0041580
        k(  333) = (   0.5000000   0.1500000   0.5000000), wk =   0.0041580
        k(  334) = (   0.5000000   0.1625000   0.5000000), wk =   0.0041580
        k(  335) = (   0.5000000   0.1750000   0.5000000), wk =   0.0041580
        k(  336) = (   0.5000000   0.1875000   0.5000000), wk =   0.0041580
        k(  337) = (   0.5000000   0.2000000   0.5000000), wk =   0.0041580
        k(  338) = (   0.5000000   0.2125000   0.5000000), wk =   0.0041580
        k(  339) = (   0.5000000   0.2250000   0.5000000), wk =   0.0041580
        k(  340) = (   0.5000000   0.2375000   0.5000000), wk =   0.0041580
        k(  341) = (   0.5000000   0.2500000   0.5000000), wk =   0.0041580
        k(  342) = (   0.5000000   0.2625000   0.5000000), wk =   0.0041580
        k(  343) = (   0.5000000   0.2750000   0.5000000), wk =   0.0041580
        k(  344) = (   0.5000000   0.2875000   0.5000000), wk =   0.0041580
        k(  345) = (   0.5000000   0.3000000   0.5000000), wk =   0.0041580
        k(  346) = (   0.5000000   0.3125000   0.5000000), wk =   0.0041580
        k(  347) = (   0.5000000   0.3250000   0.5000000), wk =   0.0041580
        k(  348) = (   0.5000000   0.3375000   0.5000000), wk =   0.0041580
        k(  349) = (   0.5000000   0.3500000   0.5000000), wk =   0.0041580
        k(  350) = (   0.5000000   0.3625000   0.5000000), wk =   0.0041580
        k(  351) = (   0.5000000   0.3750000   0.5000000), wk =   0.0041580
        k(  352) = (   0.5000000   0.3875000   0.5000000), wk =   0.0041580
        k(  353) = (   0.5000000   0.4000000   0.5000000), wk =   0.0041580
        k(  354) = (   0.5000000   0.4125000   0.5000000), wk =   0.0041580
        k(  355) = (   0.5000000   0.4250000   0.5000000), wk =   0.0041580
        k(  356) = (   0.5000000   0.4375000   0.5000000), wk =   0.0041580
        k(  357) = (   0.5000000   0.4500000   0.5000000), wk =   0.0041580
        k(  358) = (   0.5000000   0.4625000   0.5000000), wk =   0.0041580
        k(  359) = (   0.5000000   0.4750000   0.5000000), wk =   0.0041580
        k(  360) = (   0.5000000   0.4875000   0.5000000), wk =   0.0041580
        k(  361) = (   0.5000000   0.5000000   0.5000000), wk =   0.0041580
        k(  362) = (   0.4958333   0.4958333   0.4875000), wk =   0.0041580
        k(  363) = (   0.4916667   0.4916667   0.4750000), wk =   0.0041580
        k(  364) = (   0.4875000   0.4875000   0.4625000), wk =   0.0041580
        k(  365) = (   0.4833333   0.4833333   0.4500000), wk =   0.0041580
        k(  366) = (   0.4791667   0.4791667   0.4375000), wk =   0.0041580
        k(  367) = (   0.4750000   0.4750000   0.4250000), wk =   0.0041580
        k(  368) = (   0.4708333   0.4708333   0.4125000), wk =   0.0041580
        k(  369) = (   0.4666667   0.4666667   0.4000000), wk =   0.0041580
        k(  370) = (   0.4625000   0.4625000   0.3875000), wk =   0.0041580
        k(  371) = (   0.4583333   0.4583333   0.3750000), wk =   0.0041580
        k(  372) = (   0.4541667   0.4541667   0.3625000), wk =   0.0041580
        k(  373) = (   0.4500000   0.4500000   0.3500000), wk =   0.0041580
        k(  374) = (   0.4458333   0.4458333   0.3375000), wk =   0.0041580
        k(  375) = (   0.4416667   0.4416667   0.3250000), wk =   0.0041580
        k(  376) = (   0.4375000   0.4375000   0.3125000), wk =   0.0041580
        k(  377) = (   0.4333333   0.4333333   0.3000000), wk =   0.0041580
        k(  378) = (   0.4291667   0.4291667   0.2875000), wk =   0.0041580
        k(  379) = (   0.4250000   0.4250000   0.2750000), wk =   0.0041580
        k(  380) = (   0.4208333   0.4208333   0.2625000), wk =   0.0041580
        k(  381) = (   0.4166667   0.4166667   0.2500000), wk =   0.0041580
        k(  382) = (   0.4125000   0.4125000   0.2375000), wk =   0.0041580
        k(  383) = (   0.4083333   0.4083333   0.2250000), wk =   0.0041580
        k(  384) = (   0.4041667   0.4041667   0.2125000), wk =   0.0041580
        k(  385) = (   0.4000000   0.4000000   0.2000000), wk =   0.0041580
        k(  386) = (   0.3958333   0.3958333   0.1875000), wk =   0.0041580
        k(  387) = (   0.3916667   0.3916667   0.1750000), wk =   0.0041580
        k(  388) = (   0.3875000   0.3875000   0.1625000), wk =   0.0041580
        k(  389) = (   0.3833333   0.3833333   0.1500000), wk =   0.0041580
        k(  390) = (   0.3791667   0.3791667   0.1375000), wk =   0.0041580
        k(  391) = (   0.3750000   0.3750000   0.1250000), wk =   0.0041580
        k(  392) = (   0.3708333   0.3708333   0.1125000), wk =   0.0041580
        k(  393) = (   0.3666667   0.3666667   0.1000000), wk =   0.0041580
        k(  394) = (   0.3625000   0.3625000   0.0875000), wk =   0.0041580
        k(  395) = (   0.3583333   0.3583333   0.0750000), wk =   0.0041580
        k(  396) = (   0.3541667   0.3541667   0.0625000), wk =   0.0041580
        k(  397) = (   0.3500000   0.3500000   0.0500000), wk =   0.0041580
        k(  398) = (   0.3458333   0.3458333   0.0375000), wk =   0.0041580
        k(  399) = (   0.3416667   0.3416667   0.0250000), wk =   0.0041580
        k(  400) = (   0.3375000   0.3375000   0.0125000), wk =   0.0041580
        k(  401) = (   0.3333333   0.3333333   0.0000000), wk =   0.0041580
        k(  402) = (   0.3333333   0.3333333   0.0125000), wk =   0.0041580
        k(  403) = (   0.3333333   0.3333333   0.0250000), wk =   0.0041580
        k(  404) = (   0.3333333   0.3333333   0.0375000), wk =   0.0041580
        k(  405) = (   0.3333333   0.3333333   0.0500000), wk =   0.0041580
        k(  406) = (   0.3333333   0.3333333   0.0625000), wk =   0.0041580
        k(  407) = (   0.3333333   0.3333333   0.0750000), wk =   0.0041580
        k(  408) = (   0.3333333   0.3333333   0.0875000), wk =   0.0041580
        k(  409) = (   0.3333333   0.3333333   0.1000000), wk =   0.0041580
        k(  410) = (   0.3333333   0.3333333   0.1125000), wk =   0.0041580
        k(  411) = (   0.3333333   0.3333333   0.1250000), wk =   0.0041580
        k(  412) = (   0.3333333   0.3333333   0.1375000), wk =   0.0041580
        k(  413) = (   0.3333333   0.3333333   0.1500000), wk =   0.0041580
        k(  414) = (   0.3333333   0.3333333   0.1625000), wk =   0.0041580
        k(  415) = (   0.3333333   0.3333333   0.1750000), wk =   0.0041580
        k(  416) = (   0.3333333   0.3333333   0.1875000), wk =   0.0041580
        k(  417) = (   0.3333333   0.3333333   0.2000000), wk =   0.0041580
        k(  418) = (   0.3333333   0.3333333   0.2125000), wk =   0.0041580
        k(  419) = (   0.3333333   0.3333333   0.2250000), wk =   0.0041580
        k(  420) = (   0.3333333   0.3333333   0.2375000), wk =   0.0041580
        k(  421) = (   0.3333333   0.3333333   0.2500000), wk =   0.0041580
        k(  422) = (   0.3333333   0.3333333   0.2625000), wk =   0.0041580
        k(  423) = (   0.3333333   0.3333333   0.2750000), wk =   0.0041580
        k(  424) = (   0.3333333   0.3333333   0.2875000), wk =   0.0041580
        k(  425) = (   0.3333333   0.3333333   0.3000000), wk =   0.0041580
        k(  426) = (   0.3333333   0.3333333   0.3125000), wk =   0.0041580
        k(  427) = (   0.3333333   0.3333333   0.3250000), wk =   0.0041580
        k(  428) = (   0.3333333   0.3333333   0.3375000), wk =   0.0041580
        k(  429) = (   0.3333333   0.3333333   0.3500000), wk =   0.0041580
        k(  430) = (   0.3333333   0.3333333   0.3625000), wk =   0.0041580
        k(  431) = (   0.3333333   0.3333333   0.3750000), wk =   0.0041580
        k(  432) = (   0.3333333   0.3333333   0.3875000), wk =   0.0041580
        k(  433) = (   0.3333333   0.3333333   0.4000000), wk =   0.0041580
        k(  434) = (   0.3333333   0.3333333   0.4125000), wk =   0.0041580
        k(  435) = (   0.3333333   0.3333333   0.4250000), wk =   0.0041580
        k(  436) = (   0.3333333   0.3333333   0.4375000), wk =   0.0041580
        k(  437) = (   0.3333333   0.3333333   0.4500000), wk =   0.0041580
        k(  438) = (   0.3333333   0.3333333   0.4625000), wk =   0.0041580
        k(  439) = (   0.3333333   0.3333333   0.4750000), wk =   0.0041580
        k(  440) = (   0.3333333   0.3333333   0.4875000), wk =   0.0041580
        k(  441) = (   0.3333333   0.3333333   0.5000000), wk =   0.0041580
        k(  442) = (   0.3250000   0.3250000   0.4875000), wk =   0.0041580
        k(  443) = (   0.3166667   0.3166667   0.4750000), wk =   0.0041580
        k(  444) = (   0.3083333   0.3083333   0.4625000), wk =   0.0041580
        k(  445) = (   0.3000000   0.3000000   0.4500000), wk =   0.0041580
        k(  446) = (   0.2916667   0.2916667   0.4375000), wk =   0.0041580
        k(  447) = (   0.2833333   0.2833333   0.4250000), wk =   0.0041580
        k(  448) = (   0.2750000   0.2750000   0.4125000), wk =   0.0041580
        k(  449) = (   0.2666667   0.2666667   0.4000000), wk =   0.0041580
        k(  450) = (   0.2583333   0.2583333   0.3875000), wk =   0.0041580
        k(  451) = (   0.2500000   0.2500000   0.3750000), wk =   0.0041580
        k(  452) = (   0.2416667   0.2416667   0.3625000), wk =   0.0041580
        k(  453) = (   0.2333333   0.2333333   0.3500000), wk =   0.0041580
        k(  454) = (   0.2250000   0.2250000   0.3375000), wk =   0.0041580
        k(  455) = (   0.2166667   0.2166667   0.3250000), wk =   0.0041580
        k(  456) = (   0.2083333   0.2083333   0.3125000), wk =   0.0041580
        k(  457) = (   0.2000000   0.2000000   0.3000000), wk =   0.0041580
        k(  458) = (   0.1916667   0.1916667   0.2875000), wk =   0.0041580
        k(  459) = (   0.1833333   0.1833333   0.2750000), wk =   0.0041580
        k(  460) = (   0.1750000   0.1750000   0.2625000), wk =   0.0041580
        k(  461) = (   0.1666667   0.1666667   0.2500000), wk =   0.0041580
        k(  462) = (   0.1583333   0.1583333   0.2375000), wk =   0.0041580
        k(  463) = (   0.1500000   0.1500000   0.2250000), wk =   0.0041580
        k(  464) = (   0.1416667   0.1416667   0.2125000), wk =   0.0041580
        k(  465) = (   0.1333333   0.1333333   0.2000000), wk =   0.0041580
        k(  466) = (   0.1250000   0.1250000   0.1875000), wk =   0.0041580
        k(  467) = (   0.1166667   0.1166667   0.1750000), wk =   0.0041580
        k(  468) = (   0.1083333   0.1083333   0.1625000), wk =   0.0041580
        k(  469) = (   0.1000000   0.1000000   0.1500000), wk =   0.0041580
        k(  470) = (   0.0916667   0.0916667   0.1375000), wk =   0.0041580
        k(  471) = (   0.0833333   0.0833333   0.1250000), wk =   0.0041580
        k(  472) = (   0.0750000   0.0750000   0.1125000), wk =   0.0041580
        k(  473) = (   0.0666667   0.0666667   0.1000000), wk =   0.0041580
        k(  474) = (   0.0583333   0.0583333   0.0875000), wk =   0.0041580
        k(  475) = (   0.0500000   0.0500000   0.0750000), wk =   0.0041580
        k(  476) = (   0.0416667   0.0416667   0.0625000), wk =   0.0041580
        k(  477) = (   0.0333333   0.0333333   0.0500000), wk =   0.0041580
        k(  478) = (   0.0250000   0.0250000   0.0375000), wk =   0.0041580
        k(  479) = (   0.0166667   0.0166667   0.0250000), wk =   0.0041580
        k(  480) = (   0.0083333   0.0083333   0.0125000), wk =   0.0041580
        k(  481) = (   0.0000000   0.0000000   0.0000000), wk =   0.0041580

     Dense  grid:    15267 G-vectors     FFT dimensions: (  27,  27,  45)

     Dynamical RAM for                 wfc:       0.06 MB

     Dynamical RAM for     wfc (w. buffer):       0.06 MB

     Dynamical RAM for           str. fact:       0.03 MB

     Dynamical RAM for           local pot:       0.00 MB

     Dynamical RAM for          nlocal pot:       0.11 MB

     Dynamical RAM for                qrad:       2.27 MB

     Dynamical RAM for          rho,v,vnew:       0.09 MB

     Dynamical RAM for           G-vectors:       0.06 MB

     Dynamical RAM for          h,s,v(r/c):       0.22 MB

     Dynamical RAM for          <psi|beta>:       0.03 MB

     Dynamical RAM for                 psi:       0.13 MB

     Dynamical RAM for                hpsi:       0.13 MB

     Dynamical RAM for      wfcinit/wfcrot:       0.16 MB

     Estimated static dynamical RAM per process >       2.76 MB

     Estimated max dynamical RAM per process >       3.27 MB

     Estimated total dynamical RAM >     209.42 MB

     Check: negative core charge=   -0.000268

     The potential is recalculated from file :
     ./outdir/ZnO.save/charge-density

[...]
    -7.5048  -7.4987   3.8642   3.8644   3.9843   4.0837   4.5468   4.5517
     4.8752   4.8972   5.4134   5.4139   5.8760   5.8792   6.8760   7.1988
     8.4995   8.5016  17.7824  17.7857  17.9429  18.0125  18.7505  18.7648
    25.1999  25.8261  25.8274

          k = 0.3333 0.5774 0.2871 (  1902 PWs)   bands (ev):

  -116.2505-116.2503 -69.4289 -69.4277 -69.4276 -69.4251 -69.4247 -69.4244
    -7.5047  -7.4986   3.8609   3.8611   3.9972   4.0685   4.5458   4.5507
     4.8780   4.8942   5.4157   5.4162   5.8743   5.8775   6.9137   7.1620
     8.5066   8.5086  17.7900  17.7933  17.9527  18.0046  18.7293  18.7437
    25.3141  25.8501  25.8512

          k = 0.3333 0.5774 0.2948 (  1908 PWs)   bands (ev):

  -116.2506-116.2503 -69.4400 -69.4396 -69.4299 -69.4296 -69.4295 -69.4292
    -7.5047  -7.4986   3.8485   3.8488   3.9961   4.0524   4.5319   4.5368
     4.8783   4.8898   5.4067   5.4073   5.8642   5.8675   6.9510   7.1020
     8.5091   8.5112  17.7930  17.7963  17.9589  17.9963  18.7121  18.7267
    25.4288  25.8608  25.8617

          k = 0.3333 0.5774 0.3026 (  1908 PWs)   bands (ev):

  -116.2506-116.2503 -69.4401 -69.4397 -69.4299 -69.4297 -69.4295 -69.4293
    -7.5047  -7.4986   3.8471   3.8473   4.0096   4.0379   4.5313   4.5362
     4.8810   4.8869   5.4077   5.4083   5.8634   5.8666   6.9887   7.0645
     8.5122   8.5142  17.7965  17.7999  17.9677  17.9883  18.7027  18.7173
    25.5483  25.7951  25.8713

          k = 0.3333 0.5774 0.3103 (  1908 PWs)   bands (ev):

  -116.2506-116.2503 -69.4401 -69.4397 -69.4298 -69.4297 -69.4295 -69.4294
    -7.5047  -7.4986   3.8466   3.8468   4.0219   4.0252   4.5311   4.5361
     4.8832   4.8847   5.4081   5.4086   5.8631   5.8663   7.0234   7.0299
     8.5132   8.5152  17.7977  17.8010  17.9731  17.9832  18.6995  18.7141
    25.6688  25.6720  25.8747

          k = 0.3250 0.5629 0.3026 (  1908 PWs)   bands (ev):

  -116.2506-116.2503 -69.4400 -69.4396 -69.4296 -69.4295 -69.4294 -69.4293
    -7.5052  -7.4991   3.8437   3.8443   4.0124   4.0403   4.5274   4.5323
     4.8844   4.8902   5.4047   5.4073   5.8642   5.8695   6.9954   7.0709
     8.5099   8.5159  17.7010  17.7167  18.0530  18.0647  18.7088  18.7332
    25.4968  25.6952  25.9058

          k = 0.3167 0.5485 0.2948 (  1908 PWs)   bands (ev):

  -116.2506-116.2503 -69.4383 -69.4348 -69.4342 -69.4336 -69.4289 -69.4257
    -7.5075  -7.5004   3.8290   3.8430   4.0027   4.0609   4.5209   4.5261
     4.8887   4.8946   5.3904   5.4050   5.8660   5.8863   6.9775   7.1328
     8.4983   8.5191  17.5343  17.5843  18.1705  18.1860  18.7260  18.8000
    25.2826  25.6293  25.9435

          k = 0.3083 0.5340 0.2871 (  1910 PWs)   bands (ev):

  -116.2506-116.2503 -69.4423 -69.4380 -69.4348 -69.4333 -69.4297 -69.4276
    -7.5116  -7.5019   3.8178   3.8257   4.0031   4.0791   4.5050   4.5150
     4.8918   4.8931   5.3642   5.3944   5.8676   5.9097   6.9738   7.1981
     8.4738   8.5277  17.3526  17.4489  18.2558  18.3143  18.7530  18.9129
    25.0533  25.5508  25.9638

          k = 0.3000 0.5196 0.2793 (  1910 PWs)   bands (ev):

  -116.2506-116.2503 -69.4463 -69.4423 -69.4331 -69.4328 -69.4280 -69.4206
    -7.5182  -7.5032   3.8079   3.8092   4.0135   4.1032   4.4892   4.4958
     4.8929   4.9033   5.3398   5.3838   5.8761   5.9405   6.9791   7.2800
     8.4449   8.5364  17.1655  17.3216  18.3201  18.4298  18.8088  19.0515
    24.8131  25.4739  25.9719

          k = 0.2917 0.5052 0.2716 (  1916 PWs)   bands (ev):

  -116.2506-116.2503 -69.4496 -69.4440 -69.4425 -69.4392 -69.4330 -69.4310
    -7.5278  -7.5047   3.7843   3.7869   4.0056   4.1168   4.4497   4.4702
     4.8956   4.9025   5.3044   5.3633   5.8796   5.9788   6.9916   7.3548
     8.4077   8.5428  16.9725  17.2039  18.3685  18.5111  18.9049  19.2061
    24.5618  25.3990  25.9686

          k = 0.2833 0.4907 0.2638 (  1924 PWs)   bands (ev):

  -116.2506-116.2503 -69.4615 -69.4544 -69.4497 -69.4455 -69.4417 -69.4367
    -7.5392  -7.5068   3.7567   3.7673   4.0081   4.1220   4.4057   4.4330
     4.8772   4.9116   5.2625   5.3349   5.8891   6.0075   7.0072   7.4389
     8.3597   8.5538  16.7763  17.0942  18.4095  18.5603  19.0386  19.3670
    24.3101  25.3200  25.9649

          k = 0.2750 0.4763 0.2560 (  1925 PWs)   bands (ev):

  -116.2506-116.2503 -69.4643 -69.4547 -69.4520 -69.4491 -69.4401 -69.4357
    -7.5528  -7.5087   3.7364   3.7510   4.0159   4.1309   4.3784   4.4007
     4.8930   4.9091   5.2369   5.3178   5.9104   6.0668   7.0507   7.5274
     8.3037   8.5734  16.5818  16.9984  18.4523  18.5857  19.2018  19.5366
    24.0665  25.2535  25.9600

          k = 0.2667 0.4619 0.2483 (  1918 PWs)   bands (ev):

  -116.2506-116.2503 -69.4618 -69.4484 -69.4445 -69.4443 -69.4310 -69.4199
    -7.5685  -7.5106   3.7264   3.7359   4.0351   4.1491   4.3769   4.3827
     4.9202   4.9247   5.2166   5.3227   5.9461   6.1425   7.1055   7.6213
     8.2599   8.6035  16.3890  16.9153  18.5012  18.6051  19.3824  19.7088
    23.8291  25.1932  25.9567

          k = 0.2583 0.4474 0.2405 (  1910 PWs)   bands (ev):

  -116.2506-116.2503 -69.4462 -69.4442 -69.4403 -69.4304 -69.4252 -69.4105
    -7.5864  -7.5123   3.7244   3.7253   4.0520   4.1466   4.3690   4.3741
     4.9268   4.9825   5.2057   5.3208   5.9842   6.2282   7.1641   7.7198
     8.2140   8.6346  16.1944  16.8420  18.5491  18.6201  19.5752  19.8790
    23.5995  25.1379  25.9617

          k = 0.2500 0.4330 0.2328 (  1912 PWs)   bands (ev):

  -116.2506-116.2503 -69.4527 -69.4464 -69.4453 -69.4279 -69.4245 -69.4124
    -7.6068  -7.5154   3.7042   3.7131   4.0629   4.1235   4.3452   4.3541
     4.9141   5.0055   5.1695   5.2994   6.0182   6.3039   7.2238   7.7927
     8.1724   8.6603  15.9941  16.7758  18.5962  18.6288  19.7683  20.0437
    23.3752  25.0827  25.9613

          k = 0.2417 0.4186 0.2250 (  1916 PWs)   bands (ev):

  -116.2506-116.2503 -69.4508 -69.4489 -69.4435 -69.4412 -69.4316 -69.4191
    -7.6289  -7.5190   3.6815   3.6986   4.0702   4.1024   4.3147   4.3388
     4.8911   4.9975   5.1534   5.2689   6.0553   6.3833   7.2946   7.8292
     8.1534   8.6893  15.7948  16.7177  18.6339  18.6478  19.9652  20.2088
    23.1614  25.0223  25.9595

          k = 0.2333 0.4041 0.2172 (  1914 PWs)   bands (ev):

  -116.2506-116.2503 -69.4577 -69.4450 -69.4427 -69.4331 -69.4249 -69.4202
    -7.6537  -7.5224   3.6636   3.7017   4.0756   4.0778   4.3016   4.3252
     4.8862   4.9998   5.1165   5.2807   6.1066   6.4730   7.3699   7.8178
     8.2036   8.7244  15.5945  16.6696  18.6405  18.7051  20.1640  20.3654
    22.9660  24.9751  25.9689

          k = 0.2250 0.3897 0.2095 (  1910 PWs)   bands (ev):

  -116.2506-116.2503 -69.4588 -69.4430 -69.4320 -69.4280 -69.4203 -69.4173
    -7.6800  -7.5262   3.6447   3.6974   4.0753   4.0801   4.2828   4.3322
     4.8998   4.9967   5.1022   5.2730   6.1592   6.5655   7.4541   7.7725
     8.2792   8.7734  15.3946  16.6283  18.6442  18.7711  20.3616  20.5259
    22.7880  24.9287  25.9726

          k = 0.2167 0.3753 0.2017 (  1912 PWs)   bands (ev):

  -116.2506-116.2503 -69.4646 -69.4438 -69.4357 -69.4310 -69.4205 -69.4179
    -7.7081  -7.5308   3.6288   3.6931   4.0493   4.0790   4.2631   4.3206
     4.8888   4.9854   5.0776   5.2592   6.2003   6.6584   7.5357   7.7112
     8.3675   8.8101  15.1928  16.5916  18.6442  18.8421  20.5514  20.6791
    22.6308  24.8837  25.9761

          k = 0.2083 0.3608 0.1940 (  1912 PWs)   bands (ev):

  -116.2506-116.2503 -69.4589 -69.4508 -69.4355 -69.4296 -69.4207 -69.4182
    -7.7378  -7.5356   3.6152   3.6922   4.0321   4.0802   4.2494   4.3099
     4.8839   4.9776   5.0678   5.2457   6.2354   6.7570   7.6224   7.6446
     8.4651   8.8511  14.9948  16.5596  18.6404  18.9204  20.7338  20.8312
    22.4983  24.8390  25.9795

          k = 0.2000 0.3464 0.1862 (  1910 PWs)   bands (ev):

  -116.2506-116.2503 -69.4619 -69.4515 -69.4282 -69.4276 -69.4167 -69.4154
    -7.7688  -7.5403   3.5991   3.6988   4.0229   4.0718   4.2382   4.2974
     4.8838   4.9657   5.0636   5.2405   6.2742   6.8673   7.5870   7.7187
     8.5644   8.8955  14.7920  16.5309  18.6376  19.0077  20.9031  20.9857
    22.4038  24.7929  25.9843

          k = 0.1917 0.3320 0.1784 (  1910 PWs)   bands (ev):

  -116.2506-116.2503 -69.4621 -69.4588 -69.4277 -69.4260 -69.4162 -69.4126
    -7.8009  -7.5454   3.5882   3.6993   4.0057   4.0629   4.2375   4.2816
     4.8677   4.9499   5.0711   5.2272   6.3089   6.9595   7.5371   7.8117
     8.6504   8.9467  14.5896  16.5024  18.6285  19.1030  21.0529  21.1401
    22.3481  24.7479  25.9825

          k = 0.1833 0.3175 0.1707 (  1912 PWs)   bands (ev):

  -116.2506-116.2503 -69.4635 -69.4602 -69.4284 -69.4270 -69.4208 -69.4180
    -7.8342  -7.5511   3.5777   3.7028   3.9870   4.0516   4.2244   4.2626
     4.8537   4.9509   5.0586   5.2034   6.3200   7.0624   7.5046   7.8999
     8.7456   8.9883  14.3870  16.4729  18.6126  19.2041  21.1724  21.2915
    22.3300  24.7032  25.9844

          k = 0.1750 0.3031 0.1629 (  1911 PWs)   bands (ev):

  -116.2506-116.2503 -69.4654 -69.4608 -69.4295 -69.4246 -69.4186 -69.4155
    -7.8681  -7.5568   3.5735   3.7149   3.9733   4.0363   4.2109   4.2457
     4.8560   4.9410   5.0578   5.2015   6.3076   7.1729   7.4926   7.9905
     8.8375   9.0377  14.1888  16.4406  18.5954  19.3162  21.2722  21.4454
    22.3603  24.6600  25.9861

          k = 0.1667 0.2887 0.1552 (  1909 PWs)   bands (ev):

  -116.2506-116.2503 -69.4587 -69.4563 -69.4322 -69.4233 -69.4225 -69.4125
    -7.9025  -7.5625   3.5734   3.7198   3.9628   4.0232   4.2116   4.2263
     4.8502   4.9353   5.0719   5.2070   6.2819   7.2861   7.5009   8.0843
     8.9220   9.0810  13.9874  16.4066  18.5739  19.4356  21.3528  21.6012
    22.4266  24.6182  25.9890

          k = 0.1583 0.2742 0.1474 (  1903 PWs)   bands (ev):

  -116.2506-116.2503 -69.4558 -69.4481 -69.4264 -69.4233 -69.4143 -69.4037
    -7.9371  -7.5683   3.5781   3.7340   3.9656   4.0226   4.2173   4.2207
     4.8476   4.9271   5.0795   5.2048   6.2475   7.4073   7.5461   8.1829
     9.0076   9.1321  13.7885  16.3650  18.5505  19.5685  21.4281  21.7610
    22.5191  24.5770  25.9986

          k = 0.1500 0.2598 0.1397 (  1904 PWs)   bands (ev):

  -116.2506-116.2503 -69.4543 -69.4503 -69.4321 -69.4257 -69.4161 -69.4032
    -7.9719  -7.5739   3.5797   3.7455   3.9489   4.0029   4.1930   4.2123
     4.8375   4.9216   5.0860   5.1930   6.1946   7.5209   7.5921   8.2656
     9.0848   9.1752  13.5869  16.3165  18.5219  19.7098  21.4995  21.9214
    22.6236  24.5340  26.0117

          k = 0.1417 0.2454 0.1319 (  1903 PWs)   bands (ev):

  -116.2506-116.2503 -69.4559 -69.4429 -69.4273 -69.4265 -69.4206 -69.4050
    -8.0064  -7.5798   3.5923   3.7563   3.9385   3.9851   4.1679   4.2049
     4.8446   4.9129   5.0759   5.1949   6.1314   7.6437   7.6602   8.3508
     9.1622   9.2207  13.3861  16.2581  18.4901  19.8619  21.5850  22.0874
    22.7281  24.4922  26.0362

          k = 0.1333 0.2309 0.1241 (  1899 PWs)   bands (ev):

  -116.2506-116.2503 -69.4516 -69.4456 -69.4250 -69.4190 -69.4132 -69.4014
    -8.0403  -7.5857   3.6051   3.7795   3.9317   3.9782   4.1478   4.2075
     4.8443   4.9059   5.0751   5.1839   6.0700   7.7528   7.7744   8.4372
     9.2433   9.2702  13.1895  16.1942  18.4571  20.0223  21.6862  22.2553
    22.8298  24.4528  26.0750

          k = 0.1250 0.2165 0.1164 (  1897 PWs)   bands (ev):

  -116.2506-116.2503 -69.4471 -69.4427 -69.4253 -69.4180 -69.4068 -69.4063
    -8.0735  -7.5914   3.6176   3.7974   3.9327   3.9595   4.1206   4.2083
     4.8542   4.9046   5.0587   5.1958   6.0027   7.8403   7.8910   8.5107
     9.3121   9.3153  12.9925  16.1175  18.4239  20.1920  21.7995  22.4278
    22.9178  24.4157  26.1308

          k = 0.1167 0.2021 0.1086 (  1889 PWs)   bands (ev):

  -116.2506-116.2503 -69.4317 -69.4279 -69.4226 -69.4150 -69.4036 -69.3975
    -8.1059  -7.5965   3.6414   3.8244   3.9236   3.9505   4.1092   4.2080
     4.8693   4.9102   5.0786   5.2117   5.9427   7.9408   8.0235   8.5957
     9.3613   9.3866  12.7993  16.0357  18.3930  20.3775  21.9324  22.6013
    22.9885  24.3829  26.2140

          k = 0.1083 0.1876 0.1009 (  1891 PWs)   bands (ev):

  -116.2506-116.2503 -69.4440 -69.4274 -69.4261 -69.4161 -69.4034 -69.3982
    -8.1372  -7.6018   3.6500   3.8324   3.9085   3.9402   4.0861   4.1961
     4.8527   4.9104   5.0726   5.2000   5.8764   8.0327   8.1404   8.6631
     9.4008   9.4486  12.6018  15.9469  18.3604  20.5631  22.0728  22.7684
    23.0415  24.3449  26.3140

          k = 0.1000 0.1732 0.0931 (  1893 PWs)   bands (ev):

  -116.2507-116.2503 -69.4455 -69.4323 -69.4268 -69.4168 -69.4053 -69.4038
    -8.1671  -7.6069   3.6573   3.8376   3.8951   3.9324   4.0643   4.1851
     4.8492   4.9028   5.0606   5.1893   5.8123   8.1338   8.2604   8.7271
     9.4405   9.4995  12.4074  15.8519  18.3293  20.7584  22.2250  22.9344
    23.0800  24.3080  26.4346

          k = 0.0917 0.1588 0.0853 (  1896 PWs)   bands (ev):

  -116.2507-116.2503 -69.4502 -69.4378 -69.4255 -69.4246 -69.4073 -69.4068
    -8.1953  -7.6119   3.6669   3.8366   3.8849   3.9346   4.0430   4.1716
     4.8467   4.8917   5.0419   5.1635   5.7468   8.2376   8.3762   8.7897
     9.4851   9.5461  12.2151  15.7522  18.2971  20.9617  22.3788  23.0951
    23.1100  24.2747  26.4270

          k = 0.0833 0.1443 0.0776 (  1892 PWs)   bands (ev):

  -116.2507-116.2503 -69.4429 -69.4293 -69.4227 -69.4218 -69.4059 -69.4052
    -8.2217  -7.6161   3.6816   3.8392   3.8800   3.9374   4.0418   4.1718
     4.8540   4.8930   5.0474   5.1735   5.6945   8.3412   8.5017   8.8573
     9.5237   9.5930  12.0278  15.6529  18.2727  21.1715  22.5360  23.1376
    23.2474  24.2468  26.3992

          k = 0.0750 0.1299 0.0698 (  1887 PWs)   bands (ev):

  -116.2506-116.2503 -69.4281 -69.4280 -69.4205 -69.4193 -69.4014 -69.4002
    -8.2458  -7.6203   3.7016   3.8365   3.8785   3.9544   4.0499   4.1657
     4.8651   4.8990   5.0487   5.1706   5.6443   8.4493   8.6253   8.9270
     9.5666   9.6305  11.8453  15.5536  18.2500  21.3873  22.6750  23.1783
    23.3918  24.2215  26.3908

          k = 0.0667 0.1155 0.0621 (  1887 PWs)   bands (ev):

  -116.2506-116.2503 -69.4292 -69.4281 -69.4211 -69.4197 -69.4003 -69.4002
    -8.2683  -7.6241   3.7125   3.8367   3.8694   3.9600   4.0384   4.1594
     4.8637   4.9028   5.0406   5.1502   5.6065   8.5447   8.7269   8.9996
     9.5983   9.6709  11.6626  15.4567  18.2273  21.6029  22.7815  23.2486
    23.5165  24.1939  26.4002

          k = 0.0583 0.1010 0.0543 (  1889 PWs)   bands (ev):

  -116.2507-116.2503 -69.4311 -69.4295 -69.4262 -69.4210 -69.4023 -69.4009
    -8.2884  -7.6278   3.7256   3.8241   3.8618   3.9650   4.0249   4.1493
     4.8669   4.8965   5.0426   5.1345   5.5527   8.6348   8.8082   9.0886
     9.6274   9.6982  11.4838  15.3640  18.2042  21.8179  22.8350  23.3581
    23.6235  24.1691  26.4277

          k = 0.0500 0.0866 0.0466 (  1887 PWs)   bands (ev):

  -116.2506-116.2503 -69.4301 -69.4290 -69.4208 -69.4139 -69.4043 -69.3987
    -8.3061  -7.6307   3.7354   3.8151   3.8714   3.9686   4.0137   4.1506
     4.8665   4.8948   5.0550   5.1204   5.5345   8.7185   8.8676   9.1997
     9.6698   9.7239  11.3112  15.2788  18.1905  22.0280  22.8542  23.4952
    23.7152  24.1468  26.4675

          k = 0.0417 0.0722 0.0388 (  1890 PWs)   bands (ev):

  -116.2507-116.2503 -69.4391 -69.4278 -69.4248 -69.4109 -69.4082 -69.4033
    -8.3212  -7.6332   3.7434   3.8061   3.8681   3.9611   4.0029   4.1468
     4.8685   4.8941   5.0413   5.0776   5.5101   8.7894   8.9160   9.3182
     9.6951   9.7437  11.1443  15.2012  18.1712  22.2276  22.8551  23.6369
    23.7852  24.1226  26.5122

          k = 0.0333 0.0577 0.0310 (  1886 PWs)   bands (ev):

  -116.2506-116.2503 -69.4328 -69.4260 -69.4217 -69.4085 -69.4061 -69.3921
    -8.3337  -7.6349   3.7767   3.7961   3.8804   3.9622   3.9869   4.1509
     4.8830   4.8946   5.0214   5.0774   5.5148   8.8616   8.9479   9.4491
     9.7408   9.7570  10.9883  15.1358  18.1640  22.4156  22.8451  23.7750
    23.8390  24.1012  26.5539

          k = 0.0250 0.0433 0.0233 (  1886 PWs)   bands (ev):

  -116.2506-116.2503 -69.4320 -69.4277 -69.4212 -69.4143 -69.4058 -69.3847
    -8.3436  -7.6364   3.7829   3.7889   3.8883   3.9627   3.9721   4.1530
     4.8805   4.8885   5.0223   5.0689   5.5068   8.9139   8.9648   9.5693
     9.7690   9.7696  10.8434  15.0824  18.1579  22.5741  22.8354  23.8728
    23.8904  24.0852  26.5767

          k = 0.0167 0.0289 0.0155 (  1890 PWs)   bands (ev):

  -116.2507-116.2503 -69.4376 -69.4300 -69.4202 -69.4186 -69.4184 -69.3850
    -8.3508  -7.6376   3.7713   3.7783   3.8988   3.9605   3.9632   4.1533
     4.8680   4.8740   5.0097   5.0209   5.5273   8.9504   8.9754   9.6643
     9.7733   9.7834  10.7183  15.0439  18.1469  22.6988  22.8262  23.8894
    23.9743  24.0724  26.5809

          k = 0.0083 0.0144 0.0078 (  1893 PWs)   bands (ev):

  -116.2507-116.2503 -69.4418 -69.4351 -69.4304 -69.4195 -69.4185 -69.3837
    -8.3550  -7.6386   3.7685   3.7734   3.9017   3.9590   3.9591   4.1498
     4.8658   4.8716   4.9854   4.9963   5.5265   8.9704   8.9815   9.7404
     9.7771   9.7908  10.6288  15.0206  18.1332  22.7813  22.8204  23.8962
    24.0289  24.0646  26.5768

          k = 0.0000 0.0000 0.0000 (  1883 PWs)   bands (ev):

  -116.2506-116.2503 -69.4236 -69.4156 -69.4155 -69.4139 -69.4132 -69.3818
    -8.3563  -7.6383   3.7880   3.7911   3.9034   3.9626   3.9646   4.1508
     4.8864   4.8875   5.0174   5.0188   5.5369   9.0060   9.0109   9.7956
     9.7961   9.7962  10.5953  15.0128  18.1368  22.8201  22.8250  23.8983
    24.0494  24.0633  26.5743

     Writing all to output data dir ./outdir/ZnO.save/

     init_run     :      0.10s CPU      0.12s WALL (       1 calls)
     electrons    :     20.86s CPU     21.56s WALL (       1 calls)

     Called by init_run:
     wfcinit      :      0.00s CPU      0.00s WALL (       1 calls)
     wfcinit:atom :      0.01s CPU      0.01s WALL (     121 calls)
     wfcinit:wfcr :      0.76s CPU      0.80s WALL (     121 calls)
     potinit      :      0.00s CPU      0.01s WALL (       1 calls)
     hinit0       :      0.09s CPU      0.09s WALL (       1 calls)

     Called by electrons:
     c_bands      :     20.85s CPU     21.51s WALL (       1 calls)
     v_of_rho     :      0.00s CPU      0.00s WALL (       1 calls)
     v_h          :      0.00s CPU      0.00s WALL (       1 calls)
     v_xc         :      0.00s CPU      0.00s WALL (       1 calls)

     Called by c_bands:
     init_us_2    :      0.01s CPU      0.01s WALL (     121 calls)
     init_us_2:cp :      0.01s CPU      0.01s WALL (     121 calls)
     cegterg      :     12.30s CPU     12.74s WALL (     162 calls)

     Called by sum_band:

     Called by *egterg:
     cdiaghg      :      4.09s CPU      4.14s WALL (    2570 calls)
     cegterg:over :      0.63s CPU      0.66s WALL (    2449 calls)
     cegterg:upda :      0.23s CPU      0.23s WALL (    2449 calls)
     cegterg:last :      0.34s CPU      0.34s WALL (    1428 calls)
     h_psi        :      7.33s CPU      7.74s WALL (    2732 calls)
     g_psi        :      0.03s CPU      0.03s WALL (    2449 calls)

     Called by h_psi:
     h_psi:calbec :      0.38s CPU      0.40s WALL (    2732 calls)
     vloc_psi     :      6.67s CPU      7.04s WALL (    2732 calls)
     add_vuspsi   :      0.25s CPU      0.27s WALL (    2732 calls)

     General routines
     calbec       :      0.37s CPU      0.39s WALL (    2732 calls)
     fft          :      0.07s CPU      0.07s WALL (      11 calls)
     fftw         :      6.22s CPU      6.57s WALL (  107318 calls)
     davcio       :      0.01s CPU      0.12s WALL (     242 calls)

     Parallel routines

     PWSCF        :     22.68s CPU     24.54s WALL


   This run was terminated on:   1:26:33  29Aug2025            

=------------------------------------------------------------------------------=
   JOB DONE.
=------------------------------------------------------------------------------=
