
     Program BANDS v.7.2 starts on 29Aug2025 at  1:26:43 

     This program is part of the open-source Quantum ESPRESSO suite
     for quantum simulation of materials; please cite
         "P. Giannozzi et al., J. Phys.:Condens. Matter 21 395502 (2009);
         "P. Giannozzi et al., J. Phys.:Condens. Matter 29 465901 (2017);
         "P. Giannozzi et al., J. Chem. Phys. 152 154105 (2020);
          URL http://www.quantum-espresso.org", 
     in publications or presentations arising from this work. More details at
     http://www.quantum-espresso.org/quote

     Parallel version (MPI), running on    16 processors

     MPI processes distributed on     1 nodes
     R & G space division:  proc/nbgrp/npool/nimage =      16
     219291 MiB available memory on the printing compute node when the environment starts


     Reading xml data from directory:

     ./outdir/ZnO.save/

     IMPORTANT: XC functional enforced from input :
     Exchange-correlation= PBE
                           (   1   4   3   4   0   0   0)
     Any further DFT definition will be discarded
     Please, verify this is what you really want


     Parallelization info
     --------------------
     sticks:   dense  smooth     PW     G-vecs:    dense   smooth      PW
     Min          31      31     10                  947      947     178
     Max          32      32     11                  958      958     183
     Sum         511     511    163                15267    15267    2875

     Using Slab Decomposition


     Check: negative core charge=   -0.000268
     Reading collected, re-writing distributed wavefunctions
     high-symmetry point:  0.0000 0.0000 0.0000   x coordinate   0.0000
     high-symmetry point:  0.5000 0.2887 0.0000   x coordinate   0.5774
     high-symmetry point:  0.3333 0.5774 0.0000   x coordinate   0.9107
     high-symmetry point:  0.0000 0.0000 0.0000   x coordinate   1.5774
     high-symmetry point:  0.0000 0.0000 0.3103   x coordinate   1.8877
     high-symmetry point:  0.5000 0.2887 0.3103   x coordinate   2.4650
     high-symmetry point:  0.3333 0.5774 0.3103   x coordinate   2.7984
     high-symmetry point:  0.0000 0.0000 0.3103   x coordinate   3.4650
     high-symmetry point:  0.5000 0.2887 0.3103   x coordinate   4.0424
     high-symmetry point:  0.5000 0.8660 0.3103   x coordinate   4.6197
     high-symmetry point:  0.3333 0.5774 0.0000   x coordinate   5.0752
     high-symmetry point:  0.3333 0.5774 0.3103   x coordinate   5.3855
     high-symmetry point:  0.0000 0.0000 0.0000   x coordinate   6.1209

     Plottable bands (eV) written to file ZnO.dat.gnu
     Bands written to file ZnO.dat

 **************************************************************************

                    xk=(   0.00000,   0.00000,   0.00000  )

     point group C_1 (1)    
     there are  1 classes
     the character table:

       E    
A      1.00

     the symmetry operations in each class and the name of the first element:

     E        1
                                                                 

     Band symmetry, C_1 (1)     point group:

     e(  1 -  1) =   -116.25063  eV     1   --> A              
     e(  2 -  2) =   -116.25029  eV     1   --> A              
     e(  3 -  3) =    -69.42360  eV     1   --> A              
     e(  4 -  4) =    -69.41563  eV     1   --> A              
     e(  5 -  5) =    -69.41550  eV     1   --> A              
     e(  6 -  6) =    -69.41392  eV     1   --> A              
     e(  7 -  7) =    -69.41322  eV     1   --> A              
     e(  8 -  8) =    -69.38176  eV     1   --> A              
     e(  9 -  9) =     -8.35632  eV     1   --> A              
     e( 10 - 10) =     -7.63826  eV     1   --> A              
     e( 11 - 11) =      3.78797  eV     1   --> A              
     e( 12 - 12) =      3.79113  eV     1   --> A              
     e( 13 - 13) =      3.90338  eV     1   --> A              
     e( 14 - 14) =      3.96265  eV     1   --> A              
     e( 15 - 15) =      3.96461  eV     1   --> A              
     e( 16 - 16) =      4.15077  eV     1   --> A              
     e( 17 - 17) =      4.88641  eV     1   --> A              
     e( 18 - 18) =      4.88748  eV     1   --> A              
     e( 19 - 19) =      5.01736  eV     1   --> A              
     e( 20 - 20) =      5.01884  eV     1   --> A              
     e( 21 - 21) =      5.53687  eV     1   --> A              
     e( 22 - 22) =      9.00600  eV     1   --> A              
     e( 23 - 23) =      9.01091  eV     1   --> A              
     e( 24 - 24) =      9.79560  eV     1   --> A              
     e( 25 - 26) =      9.79609  eV     2   -->   2 A              
     e( 27 - 27) =     10.59526  eV     1   --> A              
     e( 28 - 28) =     15.01276  eV     1   --> A              
     e( 29 - 29) =     18.13682  eV     1   --> A              
     e( 30 - 30) =     22.82013  eV     1   --> A              
     e( 31 - 31) =     22.82501  eV     1   --> A              
     e( 32 - 32) =     23.89827  eV     1   --> A              
     e( 33 - 33) =     24.04945  eV     1   --> A              
     e( 34 - 34) =     24.06330  eV     1   --> A              
     e( 35 - 35) =     26.57435  eV     1   --> A              

 **************************************************************************

 **************************************************************************

                    xk=(   0.01250,   0.00722,   0.00000  )

     Band symmetry, C_1 (1)     point group:

     e(  1 -  1) =   -116.25067  eV     1   --> A              
     e(  2 -  2) =   -116.25035  eV     1   --> A              
     e(  3 -  3) =    -69.44732  eV     1   --> A              
     e(  4 -  4) =    -69.44045  eV     1   --> A              
     e(  5 -  5) =    -69.43152  eV     1   --> A              
     e(  6 -  6) =    -69.42290  eV     1   --> A              
     e(  7 -  7) =    -69.41576  eV     1   --> A              
     e(  8 -  8) =    -69.38423  eV     1   --> A              
     e(  9 -  9) =     -8.35562  eV     1   --> A              
     e( 10 - 10) =     -7.63860  eV     1   --> A              
     e( 11 - 11) =      3.76572  eV     1   --> A              
     e( 12 - 12) =      3.76862  eV     1   --> A              
     e( 13 - 13) =      3.90132  eV     1   --> A              
     e( 14 - 14) =      3.95730  eV     1   --> A              
     e( 15 - 15) =      3.95883  eV     1   --> A              
     e( 16 - 16) =      4.15037  eV     1   --> A              
     e( 17 - 17) =      4.86436  eV     1   --> A              
     e( 18 - 18) =      4.86531  eV     1   --> A              
     e( 19 - 19) =      4.98494  eV     1   --> A              
     e( 20 - 20) =      4.98600  eV     1   --> A              
     e( 21 - 21) =      5.52169  eV     1   --> A              
     e( 22 - 22) =      8.96970  eV     1   --> A              
     e( 23 - 23) =      8.97376  eV     1   --> A              
     e( 24 - 24) =      9.74792  eV     1   --> A              
     e( 25 - 25) =      9.76993  eV     1   --> A              
     e( 26 - 26) =      9.79441  eV     1   --> A              
     e( 27 - 27) =     10.61572  eV     1   --> A              
     e( 28 - 28) =     15.01955  eV     1   --> A              
     e( 29 - 29) =     18.13108  eV     1   --> A              
     e( 30 - 30) =     22.78929  eV     1   --> A              
     e( 31 - 31) =     22.81573  eV     1   --> A              
     e( 32 - 32) =     23.90123  eV     1   --> A              
     e( 33 - 33) =     24.03646  eV     1   --> A              
     e( 34 - 34) =     24.06261  eV     1   --> A              
     e( 35 - 35) =     26.57397  eV     1   --> A              

 **************************************************************************

 **************************************************************************

                    xk=(   0.02500,   0.01443,   0.00000  )

     Band symmetry, C_1 (1)     point group:

     e(  1 -  1) =   -116.25066  eV     1   --> A              
     e(  2 -  2) =   -116.25034  eV     1   --> A              
     e(  3 -  3) =    -69.44739  eV     1   --> A              
     e(  4 -  4) =    -69.43275  eV     1   --> A              
     e(  5 -  5) =    -69.42890  eV     1   --> A              
     e(  6 -  6) =    -69.42155  eV     1   --> A              
     e(  7 -  7) =    -69.41595  eV     1   --> A              
     e(  8 -  8) =    -69.38305  eV     1   --> A              
     e(  9 -  9) =     -8.35299  eV     1   --> A              
     e( 10 - 10) =     -7.63726  eV     1   --> A              
     e( 11 - 11) =      3.76833  eV     1   --> A              
     e( 12 - 12) =      3.77204  eV     1   --> A              
     e( 13 - 13) =      3.90364  eV     1   --> A              
     e( 14 - 14) =      3.96001  eV     1   --> A              
     e( 15 - 15) =      3.96213  eV     1   --> A              
     e( 16 - 16) =      4.15362  eV     1   --> A              
     e( 17 - 17) =      4.86549  eV     1   --> A              
     e( 18 - 18) =      4.86967  eV     1   --> A              
     e( 19 - 19) =      4.98446  eV     1   --> A              
     e( 20 - 20) =      5.00854  eV     1   --> A              
     e( 21 - 21) =      5.52132  eV     1   --> A              
     e( 22 - 22) =      8.95564  eV     1   --> A              
     e( 23 - 23) =      8.96430  eV     1   --> A              
     e( 24 - 24) =      9.69870  eV     1   --> A              
     e( 25 - 25) =      9.76731  eV     1   --> A              
     e( 26 - 26) =      9.79177  eV     1   --> A              
     e( 27 - 27) =     10.67318  eV     1   --> A              
     e( 28 - 28) =     15.04069  eV     1   --> A              
     e( 29 - 29) =     18.13238  eV     1   --> A              
     e( 30 - 30) =     22.72618  eV     1   --> A              
     e( 31 - 31) =     22.82042  eV     1   --> A              
     e( 32 - 32) =     23.91166  eV     1   --> A              
     e( 33 - 33) =     24.00066  eV     1   --> A              
     e( 34 - 34) =     24.06932  eV     1   --> A              
     e( 35 - 35) =     26.57191  eV     1   --> A              

 **************************************************************************

 **************************************************************************

                    xk=(   0.03750,   0.02165,   0.00000  )

     Band symmetry, C_1 (1)     point group:

     e(  1 -  1) =   -116.25066  eV     1   --> A              
     e(  2 -  2) =   -116.25032  eV     1   --> A              
     e(  3 -  3) =    -69.44576  eV     1   --> A              
     e(  4 -  4) =    -69.42765  eV     1   --> A              
     e(  5 -  5) =    -69.42628  eV     1   --> A              
     e(  6 -  6) =    -69.41548  eV     1   --> A              
     e(  7 -  7) =    -69.41219  eV     1   --> A              
     e(  8 -  8) =    -69.38280  eV     1   --> A              
     e(  9 -  9) =     -8.34866  eV     1   --> A              
     e( 10 - 10) =     -7.63498  eV     1   --> A              
     e( 11 - 11) =      3.76675  eV     1   --> A              
     e( 12 - 12) =      3.77466  eV     1   --> A              
     e( 13 - 13) =      3.90416  eV     1   --> A              
     e( 14 - 14) =      3.95287  eV     1   --> A              
     e( 15 - 15) =      3.96470  eV     1   --> A              
     e( 16 - 16) =      4.16433  eV     1   --> A              
     e( 17 - 17) =      4.86731  eV     1   --> A              
     e( 18 - 18) =      4.86844  eV     1   --> A              
     e( 19 - 19) =      4.99744  eV     1   --> A              
     e( 20 - 20) =      5.05173  eV     1   --> A              
     e( 21 - 21) =      5.53505  eV     1   --> A              
     e( 22 - 22) =      8.92399  eV     1   --> A              
     e( 23 - 23) =      8.95317  eV     1   --> A              
     e( 24 - 24) =      9.62273  eV     1   --> A              
     e( 25 - 25) =      9.76417  eV     1   --> A              
     e( 26 - 26) =      9.78417  eV     1   --> A              
     e( 27 - 27) =     10.75670  eV     1   --> A              
     e( 28 - 28) =     15.07569  eV     1   --> A              
     e( 29 - 29) =     18.14602  eV     1   --> A              
     e( 30 - 30) =     22.62506  eV     1   --> A              
     e( 31 - 31) =     22.82856  eV     1   --> A              
     e( 32 - 32) =     23.90947  eV     1   --> A              
     e( 33 - 33) =     23.95507  eV     1   --> A              
     e( 34 - 34) =     24.08160  eV     1   --> A              
     e( 35 - 35) =     26.55733  eV     1   --> A              

 **************************************************************************

 **************************************************************************

                    xk=(   0.05000,   0.02887,   0.00000  )

     Band symmetry, C_1 (1)     point group:

     e(  1 -  1) =   -116.25060  eV     1   --> A              
     e(  2 -  2) =   -116.25026  eV     1   --> A              
     e(  3 -  3) =    -69.43013  eV     1   --> A              
     e(  4 -  4) =    -69.40706  eV     1   --> A              
     e(  5 -  5) =    -69.40616  eV     1   --> A              
     e(  6 -  6) =    -69.39707  eV     1   --> A              
     e(  7 -  7) =    -69.39406  eV     1   --> A              
     e(  8 -  8) =    -69.37322  eV     1   --> A              
     e(  9 -  9) =     -8.34231  eV     1   --> A              
     e( 10 - 10) =     -7.63185  eV     1   --> A              
     e( 11 - 11) =      3.78372  eV     1   --> A              
     e( 12 - 12) =      3.80062  eV     1   --> A              
     e( 13 - 13) =      3.91200  eV     1   --> A              
     e( 14 - 14) =      3.97339  eV     1   --> A              
     e( 15 - 15) =      4.00297  eV     1   --> A              
     e( 16 - 16) =      4.17463  eV     1   --> A              
     e( 17 - 17) =      4.89295  eV     1   --> A              
     e( 18 - 18) =      4.90819  eV     1   --> A              
     e( 19 - 19) =      5.03617  eV     1   --> A              
     e( 20 - 20) =      5.13411  eV     1   --> A              
     e( 21 - 21) =      5.53687  eV     1   --> A              
     e( 22 - 22) =      8.89060  eV     1   --> A              
     e( 23 - 23) =      8.95471  eV     1   --> A              
     e( 24 - 24) =      9.55762  eV     1   --> A              
     e( 25 - 25) =      9.77045  eV     1   --> A              
     e( 26 - 26) =      9.78434  eV     1   --> A              
     e( 27 - 27) =     10.86054  eV     1   --> A              
     e( 28 - 28) =     15.12447  eV     1   --> A              
     e( 29 - 29) =     18.15455  eV     1   --> A              
     e( 30 - 30) =     22.50500  eV     1   --> A              
     e( 31 - 31) =     22.84393  eV     1   --> A              
     e( 32 - 32) =     23.84143  eV     1   --> A              
     e( 33 - 33) =     23.96821  eV     1   --> A              
     e( 34 - 34) =     24.10319  eV     1   --> A              
     e( 35 - 35) =     26.52209  eV     1   --> A              

 **************************************************************************

 **************************************************************************

                    xk=(   0.06250,   0.03608,   0.00000  )

     Band symmetry, C_1 (1)     point group:

     e(  1 -  1) =   -116.25062  eV     1   --> A              
     e(  2 -  2) =   -116.25029  eV     1   --> A              
     e(  3 -  3) =    -69.43037  eV     1   --> A              
     e(  4 -  4) =    -69.41986  eV     1   --> A              
     e(  5 -  5) =    -69.41336  eV     1   --> A              
     e(  6 -  6) =    -69.40670  eV     1   --> A              
     e(  7 -  7) =    -69.40189  eV     1   --> A              
     e(  8 -  8) =    -69.37585  eV     1   --> A              
     e(  9 -  9) =     -8.33459  eV     1   --> A              
     e( 10 - 10) =     -7.62878  eV     1   --> A              
     e( 11 - 11) =      3.76220  eV     1   --> A              
     e( 12 - 12) =      3.80456  eV     1   --> A              
     e( 13 - 13) =      3.90542  eV     1   --> A              
     e( 14 - 14) =      3.97096  eV     1   --> A              
     e( 15 - 15) =      4.00910  eV     1   --> A              
     e( 16 - 16) =      4.17999  eV     1   --> A              
     e( 17 - 17) =      4.89051  eV     1   --> A              
     e( 18 - 18) =      4.89241  eV     1   --> A              
     e( 19 - 19) =      5.03401  eV     1   --> A              
     e( 20 - 20) =      5.11271  eV     1   --> A              
     e( 21 - 21) =      5.49250  eV     1   --> A              
     e( 22 - 22) =      8.82936  eV     1   --> A              
     e( 23 - 23) =      8.93468  eV     1   --> A              
     e( 24 - 24) =      9.45315  eV     1   --> A              
     e( 25 - 25) =      9.76023  eV     1   --> A              
     e( 26 - 26) =      9.77374  eV     1   --> A              
     e( 27 - 27) =     10.97291  eV     1   --> A              
     e( 28 - 28) =     15.18238  eV     1   --> A              
     e( 29 - 29) =     18.15380  eV     1   --> A              
     e( 30 - 30) =     22.34996  eV     1   --> A              
     e( 31 - 31) =     22.85762  eV     1   --> A              
     e( 32 - 32) =     23.73033  eV     1   --> A              
     e( 33 - 33) =     23.99106  eV     1   --> A              
     e( 34 - 34) =     24.12247  eV     1   --> A              
     e( 35 - 35) =     26.44932  eV     1   --> A              

 **************************************************************************

 **************************************************************************

                    xk=(   0.07500,   0.04330,   0.00000  )

     Band symmetry, C_1 (1)     point group:

     e(  1 -  1) =   -116.25063  eV     1   --> A              
     e(  2 -  2) =   -116.25030  eV     1   --> A              
     e(  3 -  3) =    -69.43121  eV     1   --> A              
     e(  4 -  4) =    -69.41779  eV     1   --> A              
     e(  5 -  5) =    -69.41632  eV     1   --> A              
     e(  6 -  6) =    -69.40922  eV     1   --> A              
     e(  7 -  7) =    -69.40471  eV     1   --> A              
     e(  8 -  8) =    -69.38331  eV     1   --> A              
     e(  9 -  9) =     -8.32525  eV     1   --> A              
     e( 10 - 10) =     -7.62476  eV     1   --> A              
     e( 11 - 11) =      3.75178  eV     1   --> A              
     e( 12 - 12) =      3.81811  eV     1   --> A              
     e( 13 - 13) =      3.89420  eV     1   --> A              
     e( 14 - 14) =      3.96890  eV     1   --> A              
     e( 15 - 15) =      4.00419  eV     1   --> A              
     e( 16 - 16) =      4.18985  eV     1   --> A              
     e( 17 - 17) =      4.88361  eV     1   --> A              
     e( 18 - 18) =      4.89595  eV     1   --> A              
     e( 19 - 19) =      5.05042  eV     1   --> A              
     e( 20 - 20) =      5.13153  eV     1   --> A              
     e( 21 - 21) =      5.45583  eV     1   --> A              
     e( 22 - 22) =      8.76287  eV     1   --> A              
     e( 23 - 23) =      8.90553  eV     1   --> A              
     e( 24 - 24) =      9.35142  eV     1   --> A              
     e( 25 - 25) =      9.74907  eV     1   --> A              
     e( 26 - 26) =      9.75742  eV     1   --> A              
     e( 27 - 27) =     11.09321  eV     1   --> A              
     e( 28 - 28) =     15.25229  eV     1   --> A              
     e( 29 - 29) =     18.15840  eV     1   --> A              
     e( 30 - 30) =     22.17828  eV     1   --> A              
     e( 31 - 31) =     22.87242  eV     1   --> A              
     e( 32 - 32) =     23.60618  eV     1   --> A              
     e( 33 - 33) =     24.01651  eV     1   --> A              
     e( 34 - 34) =     24.14563  eV     1   --> A              
     e( 35 - 35) =     26.34127  eV     1   --> A              

 **************************************************************************

 **************************************************************************

                    xk=(   0.08750,   0.05052,   0.00000  )

     Band symmetry, C_1 (1)     point group:

     e(  1 -  1) =   -116.25063  eV     1   --> A              
     e(  2 -  2) =   -116.25030  eV     1   --> A              
     e(  3 -  3) =    -69.43118  eV     1   --> A              
     e(  4 -  4) =    -69.41891  eV     1   --> A              
     e(  5 -  5) =    -69.41637  eV     1   --> A              
     e(  6 -  6) =    -69.40943  eV     1   --> A              
     e(  7 -  7) =    -69.40447  eV     1   --> A              
     e(  8 -  8) =    -69.38315  eV     1   --> A              
     e(  9 -  9) =     -8.31420  eV     1   --> A              
     e( 10 - 10) =     -7.61989  eV     1   --> A              
     e( 11 - 11) =      3.74224  eV     1   --> A              
     e( 12 - 12) =      3.82453  eV     1   --> A              
     e( 13 - 13) =      3.89936  eV     1   --> A              
     e( 14 - 14) =      3.97053  eV     1   --> A              
     e( 15 - 15) =      4.01357  eV     1   --> A              
     e( 16 - 16) =      4.20299  eV     1   --> A              
     e( 17 - 17) =      4.87903  eV     1   --> A              
     e( 18 - 18) =      4.89590  eV     1   --> A              
     e( 19 - 19) =      5.04997  eV     1   --> A              
     e( 20 - 20) =      5.14093  eV     1   --> A              
     e( 21 - 21) =      5.45216  eV     1   --> A              
     e( 22 - 22) =      8.68712  eV     1   --> A              
     e( 23 - 23) =      8.87836  eV     1   --> A              
     e( 24 - 24) =      9.25042  eV     1   --> A              
     e( 25 - 25) =      9.73520  eV     1   --> A              
     e( 26 - 26) =      9.74381  eV     1   --> A              
     e( 27 - 27) =     11.22052  eV     1   --> A              
     e( 28 - 28) =     15.33464  eV     1   --> A              
     e( 29 - 29) =     18.15883  eV     1   --> A              
     e( 30 - 30) =     21.99527  eV     1   --> A              
     e( 31 - 31) =     22.89184  eV     1   --> A              
     e( 32 - 32) =     23.46683  eV     1   --> A              
     e( 33 - 33) =     24.04395  eV     1   --> A              
     e( 34 - 34) =     24.16899  eV     1   --> A              
     e( 35 - 35) =     26.20754  eV     1   --> A              

 **************************************************************************

 **************************************************************************

                    xk=(   0.10000,   0.05774,   0.00000  )

     Band symmetry, C_1 (1)     point group:

     e(  1 -  1) =   -116.25062  eV     1   --> A              
     e(  2 -  2) =   -116.25030  eV     1   --> A              
     e(  3 -  3) =    -69.43105  eV     1   --> A              
     e(  4 -  4) =    -69.41993  eV     1   --> A              
     e(  5 -  5) =    -69.41618  eV     1   --> A              
     e(  6 -  6) =    -69.40953  eV     1   --> A              
     e(  7 -  7) =    -69.40389  eV     1   --> A              
     e(  8 -  8) =    -69.38289  eV     1   --> A              
     e(  9 -  9) =     -8.30157  eV     1   --> A              
     e( 10 - 10) =     -7.61438  eV     1   --> A              
     e( 11 - 11) =      3.73195  eV     1   --> A              
     e( 12 - 12) =      3.83193  eV     1   --> A              
     e( 13 - 13) =      3.90443  eV     1   --> A              
     e( 14 - 14) =      3.97341  eV     1   --> A              
     e( 15 - 15) =      4.02453  eV     1   --> A              
     e( 16 - 16) =      4.21818  eV     1   --> A              
     e( 17 - 17) =      4.87413  eV     1   --> A              
     e( 18 - 18) =      4.89613  eV     1   --> A              
     e( 19 - 19) =      5.05001  eV     1   --> A              
     e( 20 - 20) =      5.15277  eV     1   --> A              
     e( 21 - 21) =      5.44836  eV     1   --> A              
     e( 22 - 22) =      8.60205  eV     1   --> A              
     e( 23 - 23) =      8.84787  eV     1   --> A              
     e( 24 - 24) =      9.14959  eV     1   --> A              
     e( 25 - 25) =      9.71933  eV     1   --> A              
     e( 26 - 26) =      9.72817  eV     1   --> A              
     e( 27 - 27) =     11.35230  eV     1   --> A              
     e( 28 - 28) =     15.42654  eV     1   --> A              
     e( 29 - 29) =     18.15917  eV     1   --> A              
     e( 30 - 30) =     21.80374  eV     1   --> A              
     e( 31 - 31) =     22.91398  eV     1   --> A              
     e( 32 - 32) =     23.31734  eV     1   --> A              
     e( 33 - 33) =     24.06981  eV     1   --> A              
     e( 34 - 34) =     24.19253  eV     1   --> A              
     e( 35 - 35) =     26.05420  eV     1   --> A              

 **************************************************************************

 **************************************************************************

                    xk=(   0.11250,   0.06495,   0.00000  )

     Band symmetry, C_1 (1)     point group:

     e(  1 -  1) =   -116.25062  eV     1   --> A              
     e(  2 -  2) =   -116.25030  eV     1   --> A              
     e(  3 -  3) =    -69.43082  eV     1   --> A              
     e(  4 -  4) =    -69.42084  eV     1   --> A              
     e(  5 -  5) =    -69.41576  eV     1   --> A              
     e(  6 -  6) =    -69.40952  eV     1   --> A              
     e(  7 -  7) =    -69.40299  eV     1   --> A              
     e(  8 -  8) =    -69.38252  eV     1   --> A              
     e(  9 -  9) =     -8.28742  eV     1   --> A              
     e( 10 - 10) =     -7.60825  eV     1   --> A              
     e( 11 - 11) =      3.72104  eV     1   --> A              
     e( 12 - 12) =      3.84024  eV     1   --> A              
     e( 13 - 13) =      3.90904  eV     1   --> A              
     e( 14 - 14) =      3.97793  eV     1   --> A              
     e( 15 - 15) =      4.03703  eV     1   --> A              
     e( 16 - 16) =      4.23538  eV     1   --> A              
     e( 17 - 17) =      4.86895  eV     1   --> A              
     e( 18 - 18) =      4.89671  eV     1   --> A              
     e( 19 - 19) =      5.05050  eV     1   --> A              
     e( 20 - 20) =      5.16705  eV     1   --> A              
     e( 21 - 21) =      5.44446  eV     1   --> A              
     e( 22 - 22) =      8.50867  eV     1   --> A              
     e( 23 - 23) =      8.81425  eV     1   --> A              
     e( 24 - 24) =      9.04962  eV     1   --> A              
     e( 25 - 25) =      9.70154  eV     1   --> A              
     e( 26 - 26) =      9.71045  eV     1   --> A              
     e( 27 - 27) =     11.48770  eV     1   --> A              
     e( 28 - 28) =     15.52683  eV     1   --> A              
     e( 29 - 29) =     18.15938  eV     1   --> A              
     e( 30 - 30) =     21.60692  eV     1   --> A              
     e( 31 - 31) =     22.93866  eV     1   --> A              
     e( 32 - 32) =     23.16064  eV     1   --> A              
     e( 33 - 33) =     24.09141  eV     1   --> A              
     e( 34 - 34) =     24.21493  eV     1   --> A              
     e( 35 - 35) =     25.89143  eV     1   --> A              

 **************************************************************************

 **************************************************************************

                    xk=(   0.12500,   0.07217,   0.00000  )

     Band symmetry, C_1 (1)     point group:

     e(  1 -  1) =   -116.25064  eV     1   --> A              
     e(  2 -  2) =   -116.25033  eV     1   --> A              
     e(  3 -  3) =    -69.44326  eV     1   --> A              
     e(  4 -  4) =    -69.42847  eV     1   --> A              
     e(  5 -  5) =    -69.42582  eV     1   --> A              
     e(  6 -  6) =    -69.41706  eV     1   --> A              
     e(  7 -  7) =    -69.40549  eV     1   --> A              
     e(  8 -  8) =    -69.39281  eV     1   --> A              
     e(  9 -  9) =     -8.27205  eV     1   --> A              
     e( 10 - 10) =     -7.60205  eV     1   --> A              
     e( 11 - 11) =      3.69603  eV     1   --> A              
     e( 12 - 12) =      3.82928  eV     1   --> A              
     e( 13 - 13) =      3.90117  eV     1   --> A              
     e( 14 - 14) =      3.98392  eV     1   --> A              
     e( 15 - 15) =      4.04896  eV     1   --> A              
     e( 16 - 16) =      4.25063  eV     1   --> A              
     e( 17 - 17) =      4.84106  eV     1   --> A              
     e( 18 - 18) =      4.88093  eV     1   --> A              
     e( 19 - 19) =      5.04981  eV     1   --> A              
     e( 20 - 20) =      5.15985  eV     1   --> A              
     e( 21 - 21) =      5.41891  eV     1   --> A              
     e( 22 - 22) =      8.40167  eV     1   --> A              
     e( 23 - 23) =      8.76587  eV     1   --> A              
     e( 24 - 24) =      8.94187  eV     1   --> A              
     e( 25 - 25) =      9.67273  eV     1   --> A              
     e( 26 - 26) =      9.67818  eV     1   --> A              
     e( 27 - 27) =     11.62533  eV     1   --> A              
     e( 28 - 28) =     15.63332  eV     1   --> A              
     e( 29 - 29) =     18.15529  eV     1   --> A              
     e( 30 - 30) =     21.40608  eV     1   --> A              
     e( 31 - 31) =     22.96346  eV     1   --> A              
     e( 32 - 32) =     22.99705  eV     1   --> A              
     e( 33 - 33) =     24.09851  eV     1   --> A              
     e( 34 - 34) =     24.23200  eV     1   --> A              
     e( 35 - 35) =     25.72540  eV     1   --> A              

 **************************************************************************

 **************************************************************************

                    xk=(   0.13750,   0.07939,   0.00000  )

     Band symmetry, C_1 (1)     point group:

     e(  1 -  1) =   -116.25064  eV     1   --> A              
     e(  2 -  2) =   -116.25033  eV     1   --> A              
     e(  3 -  3) =    -69.44414  eV     1   --> A              
     e(  4 -  4) =    -69.43863  eV     1   --> A              
     e(  5 -  5) =    -69.42632  eV     1   --> A              
     e(  6 -  6) =    -69.41832  eV     1   --> A              
     e(  7 -  7) =    -69.40714  eV     1   --> A              
     e(  8 -  8) =    -69.38939  eV     1   --> A              
     e(  9 -  9) =     -8.25514  eV     1   --> A              
     e( 10 - 10) =     -7.59479  eV     1   --> A              
     e( 11 - 11) =      3.68562  eV     1   --> A              
     e( 12 - 12) =      3.83452  eV     1   --> A              
     e( 13 - 13) =      3.90289  eV     1   --> A              
     e( 14 - 14) =      3.96816  eV     1   --> A              
     e( 15 - 15) =      4.06247  eV     1   --> A              
     e( 16 - 16) =      4.27044  eV     1   --> A              
     e( 17 - 17) =      4.84197  eV     1   --> A              
     e( 18 - 18) =      4.87670  eV     1   --> A              
     e( 19 - 19) =      5.05069  eV     1   --> A              
     e( 20 - 20) =      5.19536  eV     1   --> A              
     e( 21 - 21) =      5.40837  eV     1   --> A              
     e( 22 - 22) =      8.28414  eV     1   --> A              
     e( 23 - 23) =      8.72496  eV     1   --> A              
     e( 24 - 24) =      8.83920  eV     1   --> A              
     e( 25 - 25) =      9.64391  eV     1   --> A              
     e( 26 - 26) =      9.65175  eV     1   --> A              
     e( 27 - 27) =     11.76367  eV     1   --> A              
     e( 28 - 28) =     15.74730  eV     1   --> A              
     e( 29 - 29) =     18.15453  eV     1   --> A              
     e( 30 - 30) =     21.20037  eV     1   --> A              
     e( 31 - 31) =     22.83041  eV     1   --> A              
     e( 32 - 32) =     22.99315  eV     1   --> A              
     e( 33 - 33) =     24.09859  eV     1   --> A              
     e( 34 - 34) =     24.24623  eV     1   --> A              
     e( 35 - 35) =     25.57748  eV     1   --> A              

 **************************************************************************

 **************************************************************************

                    xk=(   0.15000,   0.08660,   0.00000  )

     Band symmetry, C_1 (1)     point group:

     e(  1 -  1) =   -116.25063  eV     1   --> A              
     e(  2 -  2) =   -116.25031  eV     1   --> A              
     e(  3 -  3) =    -69.43790  eV     1   --> A              
     e(  4 -  4) =    -69.43767  eV     1   --> A              
     e(  5 -  5) =    -69.41841  eV     1   --> A              
     e(  6 -  6) =    -69.41506  eV     1   --> A              
     e(  7 -  7) =    -69.41275  eV     1   --> A              
     e(  8 -  8) =    -69.38773  eV     1   --> A              
     e(  9 -  9) =     -8.23685  eV     1   --> A              
     e( 10 - 10) =     -7.58716  eV     1   --> A              
     e( 11 - 11) =      3.67919  eV     1   --> A              
     e( 12 - 12) =      3.83963  eV     1   --> A              
     e( 13 - 13) =      3.90308  eV     1   --> A              
     e( 14 - 14) =      3.97772  eV     1   --> A              
     e( 15 - 15) =      4.07769  eV     1   --> A              
     e( 16 - 16) =      4.29320  eV     1   --> A              
     e( 17 - 17) =      4.84032  eV     1   --> A              
     e( 18 - 18) =      4.87860  eV     1   --> A              
     e( 19 - 19) =      5.09696  eV     1   --> A              
     e( 20 - 20) =      5.21969  eV     1   --> A              
     e( 21 - 21) =      5.39774  eV     1   --> A              
     e( 22 - 22) =      8.17384  eV     1   --> A              
     e( 23 - 23) =      8.68294  eV     1   --> A              
     e( 24 - 24) =      8.74071  eV     1   --> A              
     e( 25 - 25) =      9.62210  eV     1   --> A              
     e( 26 - 26) =      9.62625  eV     1   --> A              
     e( 27 - 27) =     11.90596  eV     1   --> A              
     e( 28 - 28) =     15.86536  eV     1   --> A              
     e( 29 - 29) =     18.15748  eV     1   --> A              
     e( 30 - 30) =     21.00134  eV     1   --> A              
     e( 31 - 31) =     22.66380  eV     1   --> A              
     e( 32 - 32) =     23.02207  eV     1   --> A              
     e( 33 - 33) =     24.07900  eV     1   --> A              
     e( 34 - 34) =     24.25915  eV     1   --> A              
     e( 35 - 35) =     25.44829  eV     1   --> A              

 **************************************************************************

 **************************************************************************

                    xk=(   0.16250,   0.09382,   0.00000  )

     Band symmetry, C_1 (1)     point group:

     e(  1 -  1) =   -116.25063  eV     1   --> A              
     e(  2 -  2) =   -116.25030  eV     1   --> A              
     e(  3 -  3) =    -69.43913  eV     1   --> A              
     e(  4 -  4) =    -69.43709  eV     1   --> A              
     e(  5 -  5) =    -69.41631  eV     1   --> A              
     e(  6 -  6) =    -69.41520  eV     1   --> A              
     e(  7 -  7) =    -69.41358  eV     1   --> A              
     e(  8 -  8) =    -69.38671  eV     1   --> A              
     e(  9 -  9) =     -8.21759  eV     1   --> A              
     e( 10 - 10) =     -7.57918  eV     1   --> A              
     e( 11 - 11) =      3.66821  eV     1   --> A              
     e( 12 - 12) =      3.85914  eV     1   --> A              
     e( 13 - 13) =      3.90343  eV     1   --> A              
     e( 14 - 14) =      3.96469  eV     1   --> A              
     e( 15 - 15) =      4.08083  eV     1   --> A              
     e( 16 - 16) =      4.31922  eV     1   --> A              
     e( 17 - 17) =      4.83755  eV     1   --> A              
     e( 18 - 18) =      4.88876  eV     1   --> A              
     e( 19 - 19) =      5.10389  eV     1   --> A              
     e( 20 - 20) =      5.26779  eV     1   --> A              
     e( 21 - 21) =      5.39196  eV     1   --> A              
     e( 22 - 22) =      8.05819  eV     1   --> A              
     e( 23 - 23) =      8.62247  eV     1   --> A              
     e( 24 - 24) =      8.64517  eV     1   --> A              
     e( 25 - 25) =      9.59373  eV     1   --> A              
     e( 26 - 26) =      9.60064  eV     1   --> A              
     e( 27 - 27) =     12.04979  eV     1   --> A              
     e( 28 - 28) =     15.98714  eV     1   --> A              
     e( 29 - 29) =     18.15539  eV     1   --> A              
     e( 30 - 30) =     20.80408  eV     1   --> A              
     e( 31 - 31) =     22.50109  eV     1   --> A              
     e( 32 - 32) =     23.05382  eV     1   --> A              
     e( 33 - 33) =     24.03379  eV     1   --> A              
     e( 34 - 34) =     24.26485  eV     1   --> A              
     e( 35 - 35) =     25.34739  eV     1   --> A              

 **************************************************************************

 **************************************************************************

                    xk=(   0.17500,   0.10104,   0.00000  )

     Band symmetry, C_1 (1)     point group:

     e(  1 -  1) =   -116.25067  eV     1   --> A              
     e(  2 -  2) =   -116.25032  eV     1   --> A              
     e(  3 -  3) =    -69.45321  eV     1   --> A              
     e(  4 -  4) =    -69.44428  eV     1   --> A              
     e(  5 -  5) =    -69.42167  eV     1   --> A              
     e(  6 -  6) =    -69.41936  eV     1   --> A              
     e(  7 -  7) =    -69.41626  eV     1   --> A              
     e(  8 -  8) =    -69.40337  eV     1   --> A              
     e(  9 -  9) =     -8.19745  eV     1   --> A              
     e( 10 - 10) =     -7.57106  eV     1   --> A              
     e( 11 - 11) =      3.64882  eV     1   --> A              
     e( 12 - 12) =      3.85783  eV     1   --> A              
     e( 13 - 13) =      3.89871  eV     1   --> A              
     e( 14 - 14) =      3.96612  eV     1   --> A              
     e( 15 - 15) =      4.06895  eV     1   --> A              
     e( 16 - 16) =      4.34248  eV     1   --> A              
     e( 17 - 17) =      4.81641  eV     1   --> A              
     e( 18 - 18) =      4.87528  eV     1   --> A              
     e( 19 - 19) =      5.08541  eV     1   --> A              
     e( 20 - 20) =      5.28726  eV     1   --> A              
     e( 21 - 21) =      5.37806  eV     1   --> A              
     e( 22 - 22) =      7.92818  eV     1   --> A              
     e( 23 - 23) =      8.54601  eV     1   --> A              
     e( 24 - 24) =      8.56155  eV     1   --> A              
     e( 25 - 25) =      9.55089  eV     1   --> A              
     e( 26 - 26) =      9.56913  eV     1   --> A              
     e( 27 - 27) =     12.19441  eV     1   --> A              
     e( 28 - 28) =     16.11016  eV     1   --> A              
     e( 29 - 29) =     18.15116  eV     1   --> A              
     e( 30 - 30) =     20.60800  eV     1   --> A              
     e( 31 - 31) =     22.33742  eV     1   --> A              
     e( 32 - 32) =     23.08701  eV     1   --> A              
     e( 33 - 33) =     23.94845  eV     1   --> A              
     e( 34 - 34) =     24.25666  eV     1   --> A              
     e( 35 - 35) =     25.27852  eV     1   --> A              

 **************************************************************************

 **************************************************************************

                    xk=(   0.18750,   0.10825,   0.00000  )

     Band symmetry, C_1 (1)     point group:

     e(  1 -  1) =   -116.25062  eV     1   --> A              
     e(  2 -  2) =   -116.25029  eV     1   --> A              
     e(  3 -  3) =    -69.44300  eV     1   --> A              
     e(  4 -  4) =    -69.43201  eV     1   --> A              
     e(  5 -  5) =    -69.41467  eV     1   --> A              
     e(  6 -  6) =    -69.41381  eV     1   --> A              
     e(  7 -  7) =    -69.40283  eV     1   --> A              
     e(  8 -  8) =    -69.39919  eV     1   --> A              
     e(  9 -  9) =     -8.17545  eV     1   --> A              
     e( 10 - 10) =     -7.56240  eV     1   --> A              
     e( 11 - 11) =      3.64462  eV     1   --> A              
     e( 12 - 12) =      3.87935  eV     1   --> A              
     e( 13 - 13) =      3.91748  eV     1   --> A              
     e( 14 - 14) =      4.00596  eV     1   --> A              
     e( 15 - 15) =      4.09513  eV     1   --> A              
     e( 16 - 16) =      4.37049  eV     1   --> A              
     e( 17 - 17) =      4.82009  eV     1   --> A              
     e( 18 - 18) =      4.90089  eV     1   --> A              
     e( 19 - 19) =      5.08750  eV     1   --> A              
     e( 20 - 20) =      5.32147  eV     1   --> A              
     e( 21 - 21) =      5.37878  eV     1   --> A              
     e( 22 - 22) =      7.84368  eV     1   --> A              
     e( 23 - 23) =      8.45286  eV     1   --> A              
     e( 24 - 24) =      8.51390  eV     1   --> A              
     e( 25 - 25) =      9.52514  eV     1   --> A              
     e( 26 - 26) =      9.55760  eV     1   --> A              
     e( 27 - 27) =     12.34556  eV     1   --> A              
     e( 28 - 28) =     16.23597  eV     1   --> A              
     e( 29 - 29) =     18.14999  eV     1   --> A              
     e( 30 - 30) =     20.42283  eV     1   --> A              
     e( 31 - 31) =     22.18332  eV     1   --> A              
     e( 32 - 32) =     23.12558  eV     1   --> A              
     e( 33 - 33) =     23.84953  eV     1   --> A              
     e( 34 - 34) =     24.25065  eV     1   --> A              
     e( 35 - 35) =     25.24886  eV     1   --> A              

 **************************************************************************

 **************************************************************************

                    xk=(   0.20000,   0.11547,   0.00000  )

     Band symmetry, C_1 (1)     point group:

     e(  1 -  1) =   -116.25062  eV     1   --> A              
     e(  2 -  2) =   -116.25030  eV     1   --> A              
     e(  3 -  3) =    -69.44287  eV     1   --> A              
     e(  4 -  4) =    -69.43127  eV     1   --> A              
     e(  5 -  5) =    -69.41909  eV     1   --> A              
     e(  6 -  6) =    -69.41427  eV     1   --> A              
     e(  7 -  7) =    -69.40657  eV     1   --> A              
     e(  8 -  8) =    -69.40280  eV     1   --> A              
     e(  9 -  9) =     -8.15287  eV     1   --> A              
     e( 10 - 10) =     -7.55384  eV     1   --> A              
     e( 11 - 11) =      3.63096  eV     1   --> A              
     e( 12 - 12) =      3.89106  eV     1   --> A              
     e( 13 - 13) =      3.91290  eV     1   --> A              
     e( 14 - 14) =      4.01196  eV     1   --> A              
     e( 15 - 15) =      4.11570  eV     1   --> A              
     e( 16 - 16) =      4.39453  eV     1   --> A              
     e( 17 - 17) =      4.81332  eV     1   --> A              
     e( 18 - 18) =      4.90430  eV     1   --> A              
     e( 19 - 19) =      5.08711  eV     1   --> A              
     e( 20 - 20) =      5.34766  eV     1   --> A              
     e( 21 - 21) =      5.36636  eV     1   --> A              
     e( 22 - 22) =      7.72059  eV     1   --> A              
     e( 23 - 23) =      8.35824  eV     1   --> A              
     e( 24 - 24) =      8.46324  eV     1   --> A              
     e( 25 - 25) =      9.47166  eV     1   --> A              
     e( 26 - 26) =      9.52905  eV     1   --> A              
     e( 27 - 27) =     12.49463  eV     1   --> A              
     e( 28 - 28) =     16.36057  eV     1   --> A              
     e( 29 - 29) =     18.14372  eV     1   --> A              
     e( 30 - 30) =     20.23868  eV     1   --> A              
     e( 31 - 31) =     22.02949  eV     1   --> A              
     e( 32 - 32) =     23.16079  eV     1   --> A              
     e( 33 - 33) =     23.72077  eV     1   --> A              
     e( 34 - 34) =     24.23584  eV     1   --> A              
     e( 35 - 35) =     25.24419  eV     1   --> A              

 **************************************************************************

 **************************************************************************

                    xk=(   0.21250,   0.12269,   0.00000  )

     Band symmetry, C_1 (1)     point group:

     e(  1 -  1) =   -116.25064  eV     1   --> A              
     e(  2 -  2) =   -116.25030  eV     1   --> A              
     e(  3 -  3) =    -69.44474  eV     1   --> A              
     e(  4 -  4) =    -69.44353  eV     1   --> A              
     e(  5 -  5) =    -69.42101  eV     1   --> A              
     e(  6 -  6) =    -69.41364  eV     1   --> A              
     e(  7 -  7) =    -69.41241  eV     1   --> A              
     e(  8 -  8) =    -69.40551  eV     1   --> A              
     e(  9 -  9) =     -8.12962  eV     1   --> A              
     e( 10 - 10) =     -7.54505  eV     1   --> A              
     e( 11 - 11) =      3.60966  eV     1   --> A              
     e( 12 - 12) =      3.89693  eV     1   --> A              
     e( 13 - 13) =      3.91311  eV     1   --> A              
     e( 14 - 14) =      4.02228  eV     1   --> A              
     e( 15 - 15) =      4.12176  eV     1   --> A              
     e( 16 - 16) =      4.41692  eV     1   --> A              
     e( 17 - 17) =      4.79090  eV     1   --> A              
     e( 18 - 18) =      4.90166  eV     1   --> A              
     e( 19 - 19) =      5.08417  eV     1   --> A              
     e( 20 - 20) =      5.35978  eV     1   --> A              
     e( 21 - 21) =      5.37453  eV     1   --> A              
     e( 22 - 22) =      7.59467  eV     1   --> A              
     e( 23 - 23) =      8.26224  eV     1   --> A              
     e( 24 - 24) =      8.40311  eV     1   --> A              
     e( 25 - 25) =      9.43506  eV     1   --> A              
     e( 26 - 26) =      9.49912  eV     1   --> A              
     e( 27 - 27) =     12.64387  eV     1   --> A              
     e( 28 - 28) =     16.48358  eV     1   --> A              
     e( 29 - 29) =     18.13736  eV     1   --> A              
     e( 30 - 30) =     20.05968  eV     1   --> A              
     e( 31 - 31) =     21.88026  eV     1   --> A              
     e( 32 - 32) =     23.19487  eV     1   --> A              
     e( 33 - 33) =     23.57610  eV     1   --> A              
     e( 34 - 34) =     24.21422  eV     1   --> A              
     e( 35 - 35) =     25.26246  eV     1   --> A              

 **************************************************************************

 **************************************************************************

                    xk=(   0.22500,   0.12990,   0.00000  )

     Band symmetry, C_1 (1)     point group:

     e(  1 -  1) =   -116.25063  eV     1   --> A              
     e(  2 -  2) =   -116.25029  eV     1   --> A              
     e(  3 -  3) =    -69.44442  eV     1   --> A              
     e(  4 -  4) =    -69.44240  eV     1   --> A              
     e(  5 -  5) =    -69.42124  eV     1   --> A              
     e(  6 -  6) =    -69.41266  eV     1   --> A              
     e(  7 -  7) =    -69.41228  eV     1   --> A              
     e(  8 -  8) =    -69.40539  eV     1   --> A              
     e(  9 -  9) =     -8.10541  eV     1   --> A              
     e( 10 - 10) =     -7.53624  eV     1   --> A              
     e( 11 - 11) =      3.59944  eV     1   --> A              
     e( 12 - 12) =      3.90844  eV     1   --> A              
     e( 13 - 13) =      3.91289  eV     1   --> A              
     e( 14 - 14) =      4.03879  eV     1   --> A              
     e( 15 - 15) =      4.14417  eV     1   --> A              
     e( 16 - 16) =      4.44257  eV     1   --> A              
     e( 17 - 17) =      4.78844  eV     1   --> A              
     e( 18 - 18) =      4.90683  eV     1   --> A              
     e( 19 - 19) =      5.08416  eV     1   --> A              
     e( 20 - 20) =      5.35551  eV     1   --> A              
     e( 21 - 21) =      5.40469  eV     1   --> A              
     e( 22 - 22) =      7.47196  eV     1   --> A              
     e( 23 - 23) =      8.16940  eV     1   --> A              
     e( 24 - 24) =      8.35012  eV     1   --> A              
     e( 25 - 25) =      9.39791  eV     1   --> A              
     e( 26 - 26) =      9.46882  eV     1   --> A              
     e( 27 - 27) =     12.79522  eV     1   --> A              
     e( 28 - 28) =     16.60397  eV     1   --> A              
     e( 29 - 29) =     18.12938  eV     1   --> A              
     e( 30 - 30) =     19.88768  eV     1   --> A              
     e( 31 - 31) =     21.73960  eV     1   --> A              
     e( 32 - 32) =     23.22869  eV     1   --> A              
     e( 33 - 33) =     23.43254  eV     1   --> A              
     e( 34 - 34) =     24.19032  eV     1   --> A              
     e( 35 - 35) =     25.29645  eV     1   --> A              

 **************************************************************************

 **************************************************************************

                    xk=(   0.23750,   0.13712,   0.00000  )

     Band symmetry, C_1 (1)     point group:

     e(  1 -  1) =   -116.25063  eV     1   --> A              
     e(  2 -  2) =   -116.25031  eV     1   --> A              
     e(  3 -  3) =    -69.44842  eV     1   --> A              
     e(  4 -  4) =    -69.44458  eV     1   --> A              
     e(  5 -  5) =    -69.42361  eV     1   --> A              
     e(  6 -  6) =    -69.42166  eV     1   --> A              
     e(  7 -  7) =    -69.41276  eV     1   --> A              
     e(  8 -  8) =    -69.40947  eV     1   --> A              
     e(  9 -  9) =     -8.08068  eV     1   --> A              
     e( 10 - 10) =     -7.52758  eV     1   --> A              
     e( 11 - 11) =      3.58594  eV     1   --> A              
     e( 12 - 12) =      3.90956  eV     1   --> A              
     e( 13 - 13) =      3.91180  eV     1   --> A              
     e( 14 - 14) =      4.05459  eV     1   --> A              
     e( 15 - 15) =      4.16244  eV     1   --> A              
     e( 16 - 16) =      4.46350  eV     1   --> A              
     e( 17 - 17) =      4.77974  eV     1   --> A              
     e( 18 - 18) =      4.89802  eV     1   --> A              
     e( 19 - 19) =      5.08336  eV     1   --> A              
     e( 20 - 20) =      5.34068  eV     1   --> A              
     e( 21 - 21) =      5.43248  eV     1   --> A              
     e( 22 - 22) =      7.33800  eV     1   --> A              
     e( 23 - 23) =      8.07617  eV     1   --> A              
     e( 24 - 24) =      8.29562  eV     1   --> A              
     e( 25 - 25) =      9.35831  eV     1   --> A              
     e( 26 - 26) =      9.42823  eV     1   --> A              
     e( 27 - 27) =     12.94664  eV     1   --> A              
     e( 28 - 28) =     16.71826  eV     1   --> A              
     e( 29 - 29) =     18.11825  eV     1   --> A              
     e( 30 - 30) =     19.71603  eV     1   --> A              
     e( 31 - 31) =     21.60650  eV     1   --> A              
     e( 32 - 32) =     23.26003  eV     1   --> A              
     e( 33 - 33) =     23.28810  eV     1   --> A              
     e( 34 - 34) =     24.16051  eV     1   --> A              
     e( 35 - 35) =     25.34025  eV     1   --> A              

 **************************************************************************

 **************************************************************************

                    xk=(   0.25000,   0.14434,   0.00000  )

     Band symmetry, C_1 (1)     point group:

     e(  1 -  1) =   -116.25065  eV     1   --> A              
     e(  2 -  2) =   -116.25033  eV     1   --> A              
     e(  3 -  3) =    -69.46265  eV     1   --> A              
     e(  4 -  4) =    -69.44493  eV     1   --> A              
     e(  5 -  5) =    -69.43705  eV     1   --> A              
     e(  6 -  6) =    -69.43204  eV     1   --> A              
     e(  7 -  7) =    -69.42118  eV     1   --> A              
     e(  8 -  8) =    -69.41122  eV     1   --> A              
     e(  9 -  9) =     -8.05547  eV     1   --> A              
     e( 10 - 10) =     -7.51982  eV     1   --> A              
     e( 11 - 11) =      3.57185  eV     1   --> A              
     e( 12 - 12) =      3.89993  eV     1   --> A              
     e( 13 - 13) =      3.91864  eV     1   --> A              
     e( 14 - 14) =      4.06264  eV     1   --> A              
     e( 15 - 15) =      4.18317  eV     1   --> A              
     e( 16 - 16) =      4.45594  eV     1   --> A              
     e( 17 - 17) =      4.75284  eV     1   --> A              
     e( 18 - 18) =      4.89690  eV     1   --> A              
     e( 19 - 19) =      5.07879  eV     1   --> A              
     e( 20 - 20) =      5.33302  eV     1   --> A              
     e( 21 - 21) =      5.44463  eV     1   --> A              
     e( 22 - 22) =      7.21213  eV     1   --> A              
     e( 23 - 23) =      7.95340  eV     1   --> A              
     e( 24 - 24) =      8.23992  eV     1   --> A              
     e( 25 - 25) =      9.30703  eV     1   --> A              
     e( 26 - 26) =      9.39190  eV     1   --> A              
     e( 27 - 27) =     13.09170  eV     1   --> A              
     e( 28 - 28) =     16.82748  eV     1   --> A              
     e( 29 - 29) =     18.09851  eV     1   --> A              
     e( 30 - 30) =     19.55390  eV     1   --> A              
     e( 31 - 31) =     21.48054  eV     1   --> A              
     e( 32 - 32) =     23.14334  eV     1   --> A              
     e( 33 - 33) =     23.28903  eV     1   --> A              
     e( 34 - 34) =     24.13126  eV     1   --> A              
     e( 35 - 35) =     25.38754  eV     1   --> A              

 **************************************************************************

 **************************************************************************

                    xk=(   0.26250,   0.15155,   0.00000  )

     Band symmetry, C_1 (1)     point group:

     e(  1 -  1) =   -116.25065  eV     1   --> A              
     e(  2 -  2) =   -116.25034  eV     1   --> A              
     e(  3 -  3) =    -69.46626  eV     1   --> A              
     e(  4 -  4) =    -69.45571  eV     1   --> A              
     e(  5 -  5) =    -69.45165  eV     1   --> A              
     e(  6 -  6) =    -69.42765  eV     1   --> A              
     e(  7 -  7) =    -69.41446  eV     1   --> A              
     e(  8 -  8) =    -69.40377  eV     1   --> A              
     e(  9 -  9) =     -8.02979  eV     1   --> A              
     e( 10 - 10) =     -7.51166  eV     1   --> A              
     e( 11 - 11) =      3.55878  eV     1   --> A              
     e( 12 - 12) =      3.89591  eV     1   --> A              
     e( 13 - 13) =      3.93148  eV     1   --> A              
     e( 14 - 14) =      4.07796  eV     1   --> A              
     e( 15 - 15) =      4.20009  eV     1   --> A              
     e( 16 - 16) =      4.47543  eV     1   --> A              
     e( 17 - 17) =      4.73863  eV     1   --> A              
     e( 18 - 18) =      4.90361  eV     1   --> A              
     e( 19 - 19) =      5.09168  eV     1   --> A              
     e( 20 - 20) =      5.32025  eV     1   --> A              
     e( 21 - 21) =      5.49612  eV     1   --> A              
     e( 22 - 22) =      7.09094  eV     1   --> A              
     e( 23 - 23) =      7.84765  eV     1   --> A              
     e( 24 - 24) =      8.17632  eV     1   --> A              
     e( 25 - 25) =      9.26161  eV     1   --> A              
     e( 26 - 26) =      9.35805  eV     1   --> A              
     e( 27 - 27) =     13.24263  eV     1   --> A              
     e( 28 - 28) =     16.93122  eV     1   --> A              
     e( 29 - 29) =     18.07835  eV     1   --> A              
     e( 30 - 30) =     19.39798  eV     1   --> A              
     e( 31 - 31) =     21.36438  eV     1   --> A              
     e( 32 - 32) =     23.00737  eV     1   --> A              
     e( 33 - 33) =     23.31214  eV     1   --> A              
     e( 34 - 34) =     24.10646  eV     1   --> A              
     e( 35 - 35) =     25.43927  eV     1   --> A              

 **************************************************************************

 **************************************************************************

                    xk=(   0.27500,   0.15877,   0.00000  )

     Band symmetry, C_1 (1)     point group:

     e(  1 -  1) =   -116.25066  eV     1   --> A              
     e(  2 -  2) =   -116.25034  eV     1   --> A              
     e(  3 -  3) =    -69.46953  eV     1   --> A              
     e(  4 -  4) =    -69.46097  eV     1   --> A              
     e(  5 -  5) =    -69.45595  eV     1   --> A              
     e(  6 -  6) =    -69.42805  eV     1   --> A              
     e(  7 -  7) =    -69.41506  eV     1   --> A              
     e(  8 -  8) =    -69.41340  eV     1   --> A              
     e(  9 -  9) =     -8.00409  eV     1   --> A              
     e( 10 - 10) =     -7.50373  eV     1   --> A              
     e( 11 - 11) =      3.55155  eV     1   --> A              
     e( 12 - 12) =      3.87945  eV     1   --> A              
     e( 13 - 13) =      3.94257  eV     1   --> A              
     e( 14 - 14) =      4.09957  eV     1   --> A              
     e( 15 - 15) =      4.20003  eV     1   --> A              
     e( 16 - 16) =      4.49136  eV     1   --> A              
     e( 17 - 17) =      4.73797  eV     1   --> A              
     e( 18 - 18) =      4.90659  eV     1   --> A              
     e( 19 - 19) =      5.08701  eV     1   --> A              
     e( 20 - 20) =      5.31586  eV     1   --> A              
     e( 21 - 21) =      5.53240  eV     1   --> A              
     e( 22 - 22) =      6.97325  eV     1   --> A              
     e( 23 - 23) =      7.75537  eV     1   --> A              
     e( 24 - 24) =      8.10994  eV     1   --> A              
     e( 25 - 25) =      9.20640  eV     1   --> A              
     e( 26 - 26) =      9.31536  eV     1   --> A              
     e( 27 - 27) =     13.39412  eV     1   --> A              
     e( 28 - 28) =     17.02747  eV     1   --> A              
     e( 29 - 29) =     18.05566  eV     1   --> A              
     e( 30 - 30) =     19.25303  eV     1   --> A              
     e( 31 - 31) =     21.25877  eV     1   --> A              
     e( 32 - 32) =     22.88005  eV     1   --> A              
     e( 33 - 33) =     23.32868  eV     1   --> A              
     e( 34 - 34) =     24.07858  eV     1   --> A              
     e( 35 - 35) =     25.49124  eV     1   --> A              

 **************************************************************************

 **************************************************************************

                    xk=(   0.28750,   0.16599,   0.00000  )

     Band symmetry, C_1 (1)     point group:

     e(  1 -  1) =   -116.25064  eV     1   --> A              
     e(  2 -  2) =   -116.25034  eV     1   --> A              
     e(  3 -  3) =    -69.46316  eV     1   --> A              
     e(  4 -  4) =    -69.45732  eV     1   --> A              
     e(  5 -  5) =    -69.45228  eV     1   --> A              
     e(  6 -  6) =    -69.44067  eV     1   --> A              
     e(  7 -  7) =    -69.41435  eV     1   --> A              
     e(  8 -  8) =    -69.41314  eV     1   --> A              
     e(  9 -  9) =     -7.97783  eV     1   --> A              
     e( 10 - 10) =     -7.49672  eV     1   --> A              
     e( 11 - 11) =      3.54305  eV     1   --> A              
     e( 12 - 12) =      3.87958  eV     1   --> A              
     e( 13 - 13) =      3.95495  eV     1   --> A              
     e( 14 - 14) =      4.12481  eV     1   --> A              
     e( 15 - 15) =      4.24541  eV     1   --> A              
     e( 16 - 16) =      4.50643  eV     1   --> A              
     e( 17 - 17) =      4.72562  eV     1   --> A              
     e( 18 - 18) =      4.91399  eV     1   --> A              
     e( 19 - 19) =      5.07450  eV     1   --> A              
     e( 20 - 20) =      5.31211  eV     1   --> A              
     e( 21 - 21) =      5.56771  eV     1   --> A              
     e( 22 - 22) =      6.86121  eV     1   --> A              
     e( 23 - 23) =      7.66564  eV     1   --> A              
     e( 24 - 24) =      8.07159  eV     1   --> A              
     e( 25 - 25) =      9.15679  eV     1   --> A              
     e( 26 - 26) =      9.28671  eV     1   --> A              
     e( 27 - 27) =     13.54724  eV     1   --> A              
     e( 28 - 28) =     17.11398  eV     1   --> A              
     e( 29 - 29) =     18.02510  eV     1   --> A              
     e( 30 - 30) =     19.11842  eV     1   --> A              
     e( 31 - 31) =     21.16383  eV     1   --> A              
     e( 32 - 32) =     22.76243  eV     1   --> A              
     e( 33 - 33) =     23.34530  eV     1   --> A              
     e( 34 - 34) =     24.06247  eV     1   --> A              
     e( 35 - 35) =     25.54176  eV     1   --> A              

 **************************************************************************

 **************************************************************************

                    xk=(   0.30000,   0.17321,   0.00000  )

     Band symmetry, C_1 (1)     point group:

     e(  1 -  1) =   -116.25064  eV     1   --> A              
     e(  2 -  2) =   -116.25032  eV     1   --> A              
     e(  3 -  3) =    -69.48125  eV     1   --> A              
     e(  4 -  4) =    -69.45465  eV     1   --> A              
     e(  5 -  5) =    -69.44815  eV     1   --> A              
     e(  6 -  6) =    -69.43155  eV     1   --> A              
     e(  7 -  7) =    -69.40968  eV     1   --> A              
     e(  8 -  8) =    -69.40158  eV     1   --> A              
     e(  9 -  9) =     -7.95168  eV     1   --> A              
     e( 10 - 10) =     -7.48935  eV     1   --> A              
     e( 11 - 11) =      3.52680  eV     1   --> A              
     e( 12 - 12) =      3.89994  eV     1   --> A              
     e( 13 - 13) =      3.96803  eV     1   --> A              
     e( 14 - 14) =      4.12992  eV     1   --> A              
     e( 15 - 15) =      4.26751  eV     1   --> A              
     e( 16 - 16) =      4.55045  eV     1   --> A              
     e( 17 - 17) =      4.72152  eV     1   --> A              
     e( 18 - 18) =      4.93000  eV     1   --> A              
     e( 19 - 19) =      5.06973  eV     1   --> A              
     e( 20 - 20) =      5.31566  eV     1   --> A              
     e( 21 - 21) =      5.62800  eV     1   --> A              
     e( 22 - 22) =      6.75300  eV     1   --> A              
     e( 23 - 23) =      7.57357  eV     1   --> A              
     e( 24 - 24) =      8.01517  eV     1   --> A              
     e( 25 - 25) =      9.10732  eV     1   --> A              
     e( 26 - 26) =      9.26213  eV     1   --> A              
     e( 27 - 27) =     13.69686  eV     1   --> A              
     e( 28 - 28) =     17.19479  eV     1   --> A              
     e( 29 - 29) =     17.99196  eV     1   --> A              
     e( 30 - 30) =     18.99524  eV     1   --> A              
     e( 31 - 31) =     21.07708  eV     1   --> A              
     e( 32 - 32) =     22.65265  eV     1   --> A              
     e( 33 - 33) =     23.35512  eV     1   --> A              
     e( 34 - 34) =     24.04895  eV     1   --> A              
     e( 35 - 35) =     25.59563  eV     1   --> A              

 **************************************************************************

 **************************************************************************

                    xk=(   0.31250,   0.18042,   0.00000  )

     Band symmetry, C_1 (1)     point group:

     e(  1 -  1) =   -116.25062  eV     1   --> A              
     e(  2 -  2) =   -116.25031  eV     1   --> A              
     e(  3 -  3) =    -69.45995  eV     1   --> A              
     e(  4 -  4) =    -69.45412  eV     1   --> A              
     e(  5 -  5) =    -69.44790  eV     1   --> A              
     e(  6 -  6) =    -69.42709  eV     1   --> A              
     e(  7 -  7) =    -69.40956  eV     1   --> A              
     e(  8 -  8) =    -69.40164  eV     1   --> A              
     e(  9 -  9) =     -7.92568  eV     1   --> A              
     e( 10 - 10) =     -7.48264  eV     1   --> A              
     e( 11 - 11) =      3.53384  eV     1   --> A              
     e( 12 - 12) =      3.89945  eV     1   --> A              
     e( 13 - 13) =      3.97891  eV     1   --> A              
     e( 14 - 14) =      4.17095  eV     1   --> A              
     e( 15 - 15) =      4.29309  eV     1   --> A              
     e( 16 - 16) =      4.55261  eV     1   --> A              
     e( 17 - 17) =      4.76276  eV     1   --> A              
     e( 18 - 18) =      4.93895  eV     1   --> A              
     e( 19 - 19) =      5.07025  eV     1   --> A              
     e( 20 - 20) =      5.31716  eV     1   --> A              
     e( 21 - 21) =      5.66272  eV     1   --> A              
     e( 22 - 22) =      6.65425  eV     1   --> A              
     e( 23 - 23) =      7.51095  eV     1   --> A              
     e( 24 - 24) =      7.96271  eV     1   --> A              
     e( 25 - 25) =      9.06074  eV     1   --> A              
     e( 26 - 26) =      9.23126  eV     1   --> A              
     e( 27 - 27) =     13.85084  eV     1   --> A              
     e( 28 - 28) =     17.26594  eV     1   --> A              
     e( 29 - 29) =     17.94867  eV     1   --> A              
     e( 30 - 30) =     18.88560  eV     1   --> A              
     e( 31 - 31) =     21.00754  eV     1   --> A              
     e( 32 - 32) =     22.56310  eV     1   --> A              
     e( 33 - 33) =     23.35617  eV     1   --> A              
     e( 34 - 34) =     24.04197  eV     1   --> A              
     e( 35 - 35) =     25.63853  eV     1   --> A              

 **************************************************************************

 **************************************************************************

                    xk=(   0.32500,   0.18764,   0.00000  )

     Band symmetry, C_1 (1)     point group:

     e(  1 -  1) =   -116.25062  eV     1   --> A              
     e(  2 -  2) =   -116.25032  eV     1   --> A              
     e(  3 -  3) =    -69.46941  eV     1   --> A              
     e(  4 -  4) =    -69.45526  eV     1   --> A              
     e(  5 -  5) =    -69.44857  eV     1   --> A              
     e(  6 -  6) =    -69.44099  eV     1   --> A              
     e(  7 -  7) =    -69.41041  eV     1   --> A              
     e(  8 -  8) =    -69.40163  eV     1   --> A              
     e(  9 -  9) =     -7.90017  eV     1   --> A              
     e( 10 - 10) =     -7.47685  eV     1   --> A              
     e( 11 - 11) =      3.52347  eV     1   --> A              
     e( 12 - 12) =      3.89672  eV     1   --> A              
     e( 13 - 13) =      3.98255  eV     1   --> A              
     e( 14 - 14) =      4.19021  eV     1   --> A              
     e( 15 - 15) =      4.31751  eV     1   --> A              
     e( 16 - 16) =      4.54825  eV     1   --> A              
     e( 17 - 17) =      4.75926  eV     1   --> A              
     e( 18 - 18) =      4.93473  eV     1   --> A              
     e( 19 - 19) =      5.07075  eV     1   --> A              
     e( 20 - 20) =      5.31028  eV     1   --> A              
     e( 21 - 21) =      5.68447  eV     1   --> A              
     e( 22 - 22) =      6.55025  eV     1   --> A              
     e( 23 - 23) =      7.42310  eV     1   --> A              
     e( 24 - 24) =      7.90983  eV     1   --> A              
     e( 25 - 25) =      9.00835  eV     1   --> A              
     e( 26 - 26) =      9.19812  eV     1   --> A              
     e( 27 - 27) =     14.00191  eV     1   --> A              
     e( 28 - 28) =     17.31975  eV     1   --> A              
     e( 29 - 29) =     17.89486  eV     1   --> A              
     e( 30 - 30) =     18.78153  eV     1   --> A              
     e( 31 - 31) =     20.93937  eV     1   --> A              
     e( 32 - 32) =     22.48593  eV     1   --> A              
     e( 33 - 33) =     23.35053  eV     1   --> A              
     e( 34 - 34) =     24.04058  eV     1   --> A              
     e( 35 - 35) =     25.67447  eV     1   --> A              

 **************************************************************************

 **************************************************************************

                    xk=(   0.33750,   0.19486,   0.00000  )

     Band symmetry, C_1 (1)     point group:

     e(  1 -  1) =   -116.25059  eV     1   --> A              
     e(  2 -  2) =   -116.25031  eV     1   --> A              
     e(  3 -  3) =    -69.45550  eV     1   --> A              
     e(  4 -  4) =    -69.45072  eV     1   --> A              
     e(  5 -  5) =    -69.44112  eV     1   --> A              
     e(  6 -  6) =    -69.43356  eV     1   --> A              
     e(  7 -  7) =    -69.40958  eV     1   --> A              
     e(  8 -  8) =    -69.39642  eV     1   --> A              
     e(  9 -  9) =     -7.87497  eV     1   --> A              
     e( 10 - 10) =     -7.47146  eV     1   --> A              
     e( 11 - 11) =      3.53675  eV     1   --> A              
     e( 12 - 12) =      3.89727  eV     1   --> A              
     e( 13 - 13) =      3.99525  eV     1   --> A              
     e( 14 - 14) =      4.22152  eV     1   --> A              
     e( 15 - 15) =      4.35631  eV     1   --> A              
     e( 16 - 16) =      4.56283  eV     1   --> A              
     e( 17 - 17) =      4.78701  eV     1   --> A              
     e( 18 - 18) =      4.94649  eV     1   --> A              
     e( 19 - 19) =      5.08475  eV     1   --> A              
     e( 20 - 20) =      5.31979  eV     1   --> A              
     e( 21 - 21) =      5.70935  eV     1   --> A              
     e( 22 - 22) =      6.47294  eV     1   --> A              
     e( 23 - 23) =      7.36715  eV     1   --> A              
     e( 24 - 24) =      7.86136  eV     1   --> A              
     e( 25 - 25) =      8.96248  eV     1   --> A              
     e( 26 - 26) =      9.17160  eV     1   --> A              
     e( 27 - 27) =     14.15472  eV     1   --> A              
     e( 28 - 28) =     17.37230  eV     1   --> A              
     e( 29 - 29) =     17.83504  eV     1   --> A              
     e( 30 - 30) =     18.69338  eV     1   --> A              
     e( 31 - 31) =     20.88420  eV     1   --> A              
     e( 32 - 32) =     22.42481  eV     1   --> A              
     e( 33 - 33) =     23.33988  eV     1   --> A              
     e( 34 - 34) =     24.04666  eV     1   --> A              
     e( 35 - 35) =     25.71607  eV     1   --> A              

 **************************************************************************

 **************************************************************************

                    xk=(   0.35000,   0.20207,   0.00000  )

     Band symmetry, C_1 (1)     point group:

     e(  1 -  1) =   -116.25058  eV     1   --> A              
     e(  2 -  2) =   -116.25030  eV     1   --> A              
     e(  3 -  3) =    -69.45610  eV     1   --> A              
     e(  4 -  4) =    -69.45064  eV     1   --> A              
     e(  5 -  5) =    -69.44179  eV     1   --> A              
     e(  6 -  6) =    -69.43241  eV     1   --> A              
     e(  7 -  7) =    -69.40921  eV     1   --> A              
     e(  8 -  8) =    -69.39616  eV     1   --> A              
     e(  9 -  9) =     -7.85054  eV     1   --> A              
     e( 10 - 10) =     -7.46685  eV     1   --> A              
     e( 11 - 11) =      3.53880  eV     1   --> A              
     e( 12 - 12) =      3.89641  eV     1   --> A              
     e( 13 - 13) =      4.00338  eV     1   --> A              
     e( 14 - 14) =      4.24636  eV     1   --> A              
     e( 15 - 15) =      4.37992  eV     1   --> A              
     e( 16 - 16) =      4.55454  eV     1   --> A              
     e( 17 - 17) =      4.80455  eV     1   --> A              
     e( 18 - 18) =      4.95410  eV     1   --> A              
     e( 19 - 19) =      5.08606  eV     1   --> A              
     e( 20 - 20) =      5.32512  eV     1   --> A              
     e( 21 - 21) =      5.72484  eV     1   --> A              
     e( 22 - 22) =      6.40359  eV     1   --> A              
     e( 23 - 23) =      7.28996  eV     1   --> A              
     e( 24 - 24) =      7.81342  eV     1   --> A              
     e( 25 - 25) =      8.91150  eV     1   --> A              
     e( 26 - 26) =      9.14303  eV     1   --> A              
     e( 27 - 27) =     14.30306  eV     1   --> A              
     e( 28 - 28) =     17.41357  eV     1   --> A              
     e( 29 - 29) =     17.76231  eV     1   --> A              
     e( 30 - 30) =     18.61615  eV     1   --> A              
     e( 31 - 31) =     20.83063  eV     1   --> A              
     e( 32 - 32) =     22.37736  eV     1   --> A              
     e( 33 - 33) =     23.32399  eV     1   --> A              
     e( 34 - 34) =     24.05653  eV     1   --> A              
     e( 35 - 35) =     25.73971  eV     1   --> A              

 **************************************************************************

 **************************************************************************

                    xk=(   0.36250,   0.20929,   0.00000  )

     Band symmetry, C_1 (1)     point group:

     e(  1 -  1) =   -116.25056  eV     1   --> A              
     e(  2 -  2) =   -116.25028  eV     1   --> A              
     e(  3 -  3) =    -69.44485  eV     1   --> A              
     e(  4 -  4) =    -69.44205  eV     1   --> A              
     e(  5 -  5) =    -69.43930  eV     1   --> A              
     e(  6 -  6) =    -69.42881  eV     1   --> A              
     e(  7 -  7) =    -69.40849  eV     1   --> A              
     e(  8 -  8) =    -69.39559  eV     1   --> A              
     e(  9 -  9) =     -7.82689  eV     1   --> A              
     e( 10 - 10) =     -7.46260  eV     1   --> A              
     e( 11 - 11) =      3.54651  eV     1   --> A              
     e( 12 - 12) =      3.89636  eV     1   --> A              
     e( 13 - 13) =      4.01976  eV     1   --> A              
     e( 14 - 14) =      4.27447  eV     1   --> A              
     e( 15 - 15) =      4.41574  eV     1   --> A              
     e( 16 - 16) =      4.54672  eV     1   --> A              
     e( 17 - 17) =      4.82893  eV     1   --> A              
     e( 18 - 18) =      4.98513  eV     1   --> A              
     e( 19 - 19) =      5.09779  eV     1   --> A              
     e( 20 - 20) =      5.33545  eV     1   --> A              
     e( 21 - 21) =      5.73185  eV     1   --> A              
     e( 22 - 22) =      6.34871  eV     1   --> A              
     e( 23 - 23) =      7.22404  eV     1   --> A              
     e( 24 - 24) =      7.76819  eV     1   --> A              
     e( 25 - 25) =      8.86245  eV     1   --> A              
     e( 26 - 26) =      9.11967  eV     1   --> A              
     e( 27 - 27) =     14.44957  eV     1   --> A              
     e( 28 - 28) =     17.44682  eV     1   --> A              
     e( 29 - 29) =     17.68334  eV     1   --> A              
     e( 30 - 30) =     18.55120  eV     1   --> A              
     e( 31 - 31) =     20.78766  eV     1   --> A              
     e( 32 - 32) =     22.34632  eV     1   --> A              
     e( 33 - 33) =     23.30502  eV     1   --> A              
     e( 34 - 34) =     24.07002  eV     1   --> A              
     e( 35 - 35) =     25.75873  eV     1   --> A              

 **************************************************************************

 **************************************************************************

                    xk=(   0.37500,   0.21651,   0.00000  )

     Band symmetry, C_1 (1)     point group:

     e(  1 -  1) =   -116.25058  eV     1   --> A              
     e(  2 -  2) =   -116.25030  eV     1   --> A              
     e(  3 -  3) =    -69.45681  eV     1   --> A              
     e(  4 -  4) =    -69.44467  eV     1   --> A              
     e(  5 -  5) =    -69.44324  eV     1   --> A              
     e(  6 -  6) =    -69.43308  eV     1   --> A              
     e(  7 -  7) =    -69.41551  eV     1   --> A              
     e(  8 -  8) =    -69.40332  eV     1   --> A              
     e(  9 -  9) =     -7.80455  eV     1   --> A              
     e( 10 - 10) =     -7.45992  eV     1   --> A              
     e( 11 - 11) =      3.54981  eV     1   --> A              
     e( 12 - 12) =      3.89133  eV     1   --> A              
     e( 13 - 13) =      4.01044  eV     1   --> A              
     e( 14 - 14) =      4.29697  eV     1   --> A              
     e( 15 - 15) =      4.42945  eV     1   --> A              
     e( 16 - 16) =      4.52661  eV     1   --> A              
     e( 17 - 17) =      4.82128  eV     1   --> A              
     e( 18 - 18) =      4.97469  eV     1   --> A              
     e( 19 - 19) =      5.09088  eV     1   --> A              
     e( 20 - 20) =      5.33590  eV     1   --> A              
     e( 21 - 21) =      5.71649  eV     1   --> A              
     e( 22 - 22) =      6.29435  eV     1   --> A              
     e( 23 - 23) =      7.15539  eV     1   --> A              
     e( 24 - 24) =      7.72259  eV     1   --> A              
     e( 25 - 25) =      8.81202  eV     1   --> A              
     e( 26 - 26) =      9.09009  eV     1   --> A              
     e( 27 - 27) =     14.59276  eV     1   --> A              
     e( 28 - 28) =     17.46738  eV     1   --> A              
     e( 29 - 29) =     17.59769  eV     1   --> A              
[...]
     e(  2 -  2) =   -116.25032  eV     1   --> A              
     e(  3 -  3) =    -69.43113  eV     1   --> A              
     e(  4 -  4) =    -69.42954  eV     1   --> A              
     e(  5 -  5) =    -69.42615  eV     1   --> A              
     e(  6 -  6) =    -69.42102  eV     1   --> A              
     e(  7 -  7) =    -69.40234  eV     1   --> A              
     e(  8 -  8) =    -69.40085  eV     1   --> A              
     e(  9 -  9) =     -8.28843  eV     1   --> A              
     e( 10 - 10) =     -7.62781  eV     1   --> A              
     e( 11 - 11) =      3.72561  eV     1   --> A              
     e( 12 - 12) =      3.82414  eV     1   --> A              
     e( 13 - 13) =      3.86184  eV     1   --> A              
     e( 14 - 14) =      3.96499  eV     1   --> A              
     e( 15 - 15) =      4.02490  eV     1   --> A              
     e( 16 - 16) =      4.14931  eV     1   --> A              
     e( 17 - 17) =      4.86694  eV     1   --> A              
     e( 18 - 18) =      4.89646  eV     1   --> A              
     e( 19 - 19) =      5.04263  eV     1   --> A              
     e( 20 - 20) =      5.13449  eV     1   --> A              
     e( 21 - 21) =      5.55273  eV     1   --> A              
     e( 22 - 22) =      8.63479  eV     1   --> A              
     e( 23 - 23) =      8.80823  eV     1   --> A              
     e( 24 - 24) =      9.08862  eV     1   --> A              
     e( 25 - 25) =      9.62742  eV     1   --> A              
     e( 26 - 26) =      9.69824  eV     1   --> A              
     e( 27 - 27) =     11.48375  eV     1   --> A              
     e( 28 - 28) =     15.36400  eV     1   --> A              
     e( 29 - 29) =     18.20416  eV     1   --> A              
     e( 30 - 30) =     21.81786  eV     1   --> A              
     e( 31 - 31) =     22.83500  eV     1   --> A              
     e( 32 - 32) =     23.35810  eV     1   --> A              
     e( 33 - 33) =     23.62348  eV     1   --> A              
     e( 34 - 34) =     24.16906  eV     1   --> A              
     e( 35 - 35) =     26.42771  eV     1   --> A              

 **************************************************************************

 **************************************************************************

                    xk=(   0.05000,   0.08660,   0.04655  )

     Band symmetry, C_1 (1)     point group:

     e(  1 -  1) =   -116.25065  eV     1   --> A              
     e(  2 -  2) =   -116.25032  eV     1   --> A              
     e(  3 -  3) =    -69.43011  eV     1   --> A              
     e(  4 -  4) =    -69.42899  eV     1   --> A              
     e(  5 -  5) =    -69.42076  eV     1   --> A              
     e(  6 -  6) =    -69.41387  eV     1   --> A              
     e(  7 -  7) =    -69.40432  eV     1   --> A              
     e(  8 -  8) =    -69.39870  eV     1   --> A              
     e(  9 -  9) =     -8.30611  eV     1   --> A              
     e( 10 - 10) =     -7.63075  eV     1   --> A              
     e( 11 - 11) =      3.73541  eV     1   --> A              
     e( 12 - 12) =      3.81511  eV     1   --> A              
     e( 13 - 13) =      3.87136  eV     1   --> A              
     e( 14 - 14) =      3.96860  eV     1   --> A              
     e( 15 - 15) =      4.01369  eV     1   --> A              
     e( 16 - 16) =      4.15061  eV     1   --> A              
     e( 17 - 17) =      4.86648  eV     1   --> A              
     e( 18 - 18) =      4.89478  eV     1   --> A              
     e( 19 - 19) =      5.05504  eV     1   --> A              
     e( 20 - 20) =      5.12039  eV     1   --> A              
     e( 21 - 21) =      5.53449  eV     1   --> A              
     e( 22 - 22) =      8.71854  eV     1   --> A              
     e( 23 - 23) =      8.86758  eV     1   --> A              
     e( 24 - 24) =      9.19966  eV     1   --> A              
     e( 25 - 25) =      9.66978  eV     1   --> A              
     e( 26 - 26) =      9.72388  eV     1   --> A              
     e( 27 - 27) =     11.31120  eV     1   --> A              
     e( 28 - 28) =     15.27882  eV     1   --> A              
     e( 29 - 29) =     18.19052  eV     1   --> A              
     e( 30 - 30) =     22.02804  eV     1   --> A              
     e( 31 - 31) =     22.85416  eV     1   --> A              
     e( 32 - 32) =     23.49524  eV     1   --> A              
     e( 33 - 33) =     23.71520  eV     1   --> A              
     e( 34 - 34) =     24.14675  eV     1   --> A              
     e( 35 - 35) =     26.46747  eV     1   --> A              

 **************************************************************************

 **************************************************************************

                    xk=(   0.04167,   0.07217,   0.03879  )

     Band symmetry, C_1 (1)     point group:

     e(  1 -  1) =   -116.25065  eV     1   --> A              
     e(  2 -  2) =   -116.25033  eV     1   --> A              
     e(  3 -  3) =    -69.43914  eV     1   --> A              
     e(  4 -  4) =    -69.42779  eV     1   --> A              
     e(  5 -  5) =    -69.42483  eV     1   --> A              
     e(  6 -  6) =    -69.41087  eV     1   --> A              
     e(  7 -  7) =    -69.40819  eV     1   --> A              
     e(  8 -  8) =    -69.40328  eV     1   --> A              
     e(  9 -  9) =     -8.32125  eV     1   --> A              
     e( 10 - 10) =     -7.63323  eV     1   --> A              
     e( 11 - 11) =      3.74337  eV     1   --> A              
     e( 12 - 12) =      3.80614  eV     1   --> A              
     e( 13 - 13) =      3.86812  eV     1   --> A              
     e( 14 - 14) =      3.96112  eV     1   --> A              
     e( 15 - 15) =      4.00289  eV     1   --> A              
     e( 16 - 16) =      4.14683  eV     1   --> A              
     e( 17 - 17) =      4.86847  eV     1   --> A              
     e( 18 - 18) =      4.89409  eV     1   --> A              
     e( 19 - 19) =      5.04134  eV     1   --> A              
     e( 20 - 20) =      5.07759  eV     1   --> A              
     e( 21 - 21) =      5.51013  eV     1   --> A              
     e( 22 - 22) =      8.78945  eV     1   --> A              
     e( 23 - 23) =      8.91596  eV     1   --> A              
     e( 24 - 24) =      9.31819  eV     1   --> A              
     e( 25 - 25) =      9.69511  eV     1   --> A              
     e( 26 - 26) =      9.74372  eV     1   --> A              
     e( 27 - 27) =     11.14435  eV     1   --> A              
     e( 28 - 28) =     15.20120  eV     1   --> A              
     e( 29 - 29) =     18.17118  eV     1   --> A              
     e( 30 - 30) =     22.22763  eV     1   --> A              
     e( 31 - 31) =     22.85513  eV     1   --> A              
     e( 32 - 32) =     23.63686  eV     1   --> A              
     e( 33 - 33) =     23.78520  eV     1   --> A              
     e( 34 - 34) =     24.12257  eV     1   --> A              
     e( 35 - 35) =     26.51217  eV     1   --> A              

 **************************************************************************

 **************************************************************************

                    xk=(   0.03333,   0.05774,   0.03103  )

     Band symmetry, C_1 (1)     point group:

     e(  1 -  1) =   -116.25064  eV     1   --> A              
     e(  2 -  2) =   -116.25031  eV     1   --> A              
     e(  3 -  3) =    -69.43275  eV     1   --> A              
     e(  4 -  4) =    -69.42602  eV     1   --> A              
     e(  5 -  5) =    -69.42172  eV     1   --> A              
     e(  6 -  6) =    -69.40845  eV     1   --> A              
     e(  7 -  7) =    -69.40611  eV     1   --> A              
     e(  8 -  8) =    -69.39213  eV     1   --> A              
     e(  9 -  9) =     -8.33373  eV     1   --> A              
     e( 10 - 10) =     -7.63495  eV     1   --> A              
     e( 11 - 11) =      3.77673  eV     1   --> A              
     e( 12 - 12) =      3.79611  eV     1   --> A              
     e( 13 - 13) =      3.88040  eV     1   --> A              
     e( 14 - 14) =      3.96225  eV     1   --> A              
     e( 15 - 15) =      3.98685  eV     1   --> A              
     e( 16 - 16) =      4.15093  eV     1   --> A              
     e( 17 - 17) =      4.88298  eV     1   --> A              
     e( 18 - 18) =      4.89456  eV     1   --> A              
     e( 19 - 19) =      5.02140  eV     1   --> A              
     e( 20 - 20) =      5.07742  eV     1   --> A              
     e( 21 - 21) =      5.51483  eV     1   --> A              
     e( 22 - 22) =      8.86162  eV     1   --> A              
     e( 23 - 23) =      8.94790  eV     1   --> A              
     e( 24 - 24) =      9.44909  eV     1   --> A              
     e( 25 - 25) =      9.74078  eV     1   --> A              
     e( 26 - 26) =      9.75702  eV     1   --> A              
     e( 27 - 27) =     10.98833  eV     1   --> A              
     e( 28 - 28) =     15.13581  eV     1   --> A              
     e( 29 - 29) =     18.16399  eV     1   --> A              
     e( 30 - 30) =     22.41561  eV     1   --> A              
     e( 31 - 31) =     22.84515  eV     1   --> A              
     e( 32 - 32) =     23.77497  eV     1   --> A              
     e( 33 - 33) =     23.83903  eV     1   --> A              
     e( 34 - 34) =     24.10119  eV     1   --> A              
     e( 35 - 35) =     26.55385  eV     1   --> A              

 **************************************************************************

 **************************************************************************

                    xk=(   0.02500,   0.04330,   0.02328  )

     Band symmetry, C_1 (1)     point group:

     e(  1 -  1) =   -116.25065  eV     1   --> A              
     e(  2 -  2) =   -116.25031  eV     1   --> A              
     e(  3 -  3) =    -69.43204  eV     1   --> A              
     e(  4 -  4) =    -69.42772  eV     1   --> A              
     e(  5 -  5) =    -69.42116  eV     1   --> A              
     e(  6 -  6) =    -69.41426  eV     1   --> A              
     e(  7 -  7) =    -69.40579  eV     1   --> A              
     e(  8 -  8) =    -69.38468  eV     1   --> A              
     e(  9 -  9) =     -8.34362  eV     1   --> A              
     e( 10 - 10) =     -7.63643  eV     1   --> A              
     e( 11 - 11) =      3.78289  eV     1   --> A              
     e( 12 - 12) =      3.78889  eV     1   --> A              
     e( 13 - 13) =      3.88835  eV     1   --> A              
     e( 14 - 14) =      3.96269  eV     1   --> A              
     e( 15 - 15) =      3.97208  eV     1   --> A              
     e( 16 - 16) =      4.15295  eV     1   --> A              
     e( 17 - 17) =      4.88049  eV     1   --> A              
     e( 18 - 18) =      4.88849  eV     1   --> A              
     e( 19 - 19) =      5.02230  eV     1   --> A              
     e( 20 - 20) =      5.06891  eV     1   --> A              
     e( 21 - 21) =      5.50679  eV     1   --> A              
     e( 22 - 22) =      8.91391  eV     1   --> A              
     e( 23 - 23) =      8.96476  eV     1   --> A              
     e( 24 - 24) =      9.56932  eV     1   --> A              
     e( 25 - 25) =      9.76904  eV     1   --> A              
     e( 26 - 26) =      9.76956  eV     1   --> A              
     e( 27 - 27) =     10.84337  eV     1   --> A              
     e( 28 - 28) =     15.08238  eV     1   --> A              
     e( 29 - 29) =     18.15790  eV     1   --> A              
     e( 30 - 30) =     22.57405  eV     1   --> A              
     e( 31 - 31) =     22.83538  eV     1   --> A              
     e( 32 - 32) =     23.87283  eV     1   --> A              
     e( 33 - 33) =     23.89038  eV     1   --> A              
     e( 34 - 34) =     24.08521  eV     1   --> A              
     e( 35 - 35) =     26.57665  eV     1   --> A              

 **************************************************************************

 **************************************************************************

                    xk=(   0.01667,   0.02887,   0.01552  )

     Band symmetry, C_1 (1)     point group:

     e(  1 -  1) =   -116.25066  eV     1   --> A              
     e(  2 -  2) =   -116.25033  eV     1   --> A              
     e(  3 -  3) =    -69.43762  eV     1   --> A              
     e(  4 -  4) =    -69.43004  eV     1   --> A              
     e(  5 -  5) =    -69.42018  eV     1   --> A              
     e(  6 -  6) =    -69.41859  eV     1   --> A              
     e(  7 -  7) =    -69.41842  eV     1   --> A              
     e(  8 -  8) =    -69.38501  eV     1   --> A              
     e(  9 -  9) =     -8.35077  eV     1   --> A              
     e( 10 - 10) =     -7.63762  eV     1   --> A              
     e( 11 - 11) =      3.77129  eV     1   --> A              
     e( 12 - 12) =      3.77834  eV     1   --> A              
     e( 13 - 13) =      3.89884  eV     1   --> A              
     e( 14 - 14) =      3.96054  eV     1   --> A              
     e( 15 - 15) =      3.96316  eV     1   --> A              
     e( 16 - 16) =      4.15335  eV     1   --> A              
     e( 17 - 17) =      4.86805  eV     1   --> A              
     e( 18 - 18) =      4.87398  eV     1   --> A              
     e( 19 - 19) =      5.00966  eV     1   --> A              
     e( 20 - 20) =      5.02089  eV     1   --> A              
     e( 21 - 21) =      5.52733  eV     1   --> A              
     e( 22 - 22) =      8.95045  eV     1   --> A              
     e( 23 - 23) =      8.97543  eV     1   --> A              
     e( 24 - 24) =      9.66427  eV     1   --> A              
     e( 25 - 25) =      9.77334  eV     1   --> A              
     e( 26 - 26) =      9.78337  eV     1   --> A              
     e( 27 - 27) =     10.71834  eV     1   --> A              
     e( 28 - 28) =     15.04395  eV     1   --> A              
     e( 29 - 29) =     18.14694  eV     1   --> A              
     e( 30 - 30) =     22.69883  eV     1   --> A              
     e( 31 - 31) =     22.82621  eV     1   --> A              
     e( 32 - 32) =     23.88943  eV     1   --> A              
     e( 33 - 33) =     23.97427  eV     1   --> A              
     e( 34 - 34) =     24.07236  eV     1   --> A              
     e( 35 - 35) =     26.58088  eV     1   --> A              

 **************************************************************************

 **************************************************************************

                    xk=(   0.00833,   0.01443,   0.00776  )

     Band symmetry, C_1 (1)     point group:

     e(  1 -  1) =   -116.25066  eV     1   --> A              
     e(  2 -  2) =   -116.25034  eV     1   --> A              
     e(  3 -  3) =    -69.44179  eV     1   --> A              
     e(  4 -  4) =    -69.43510  eV     1   --> A              
     e(  5 -  5) =    -69.43043  eV     1   --> A              
     e(  6 -  6) =    -69.41947  eV     1   --> A              
     e(  7 -  7) =    -69.41850  eV     1   --> A              
     e(  8 -  8) =    -69.38374  eV     1   --> A              
     e(  9 -  9) =     -8.35504  eV     1   --> A              
     e( 10 - 10) =     -7.63864  eV     1   --> A              
     e( 11 - 11) =      3.76854  eV     1   --> A              
     e( 12 - 12) =      3.77339  eV     1   --> A              
     e( 13 - 13) =      3.90167  eV     1   --> A              
     e( 14 - 15) =      3.95903  eV     2   -->   2 A              
     e( 16 - 16) =      4.14980  eV     1   --> A              
     e( 17 - 17) =      4.86583  eV     1   --> A              
     e( 18 - 18) =      4.87162  eV     1   --> A              
     e( 19 - 19) =      4.98538  eV     1   --> A              
     e( 20 - 20) =      4.99635  eV     1   --> A              
     e( 21 - 21) =      5.52648  eV     1   --> A              
     e( 22 - 22) =      8.97040  eV     1   --> A              
     e( 23 - 23) =      8.98145  eV     1   --> A              
     e( 24 - 24) =      9.74036  eV     1   --> A              
     e( 25 - 25) =      9.77706  eV     1   --> A              
     e( 26 - 26) =      9.79082  eV     1   --> A              
     e( 27 - 27) =     10.62877  eV     1   --> A              
     e( 28 - 28) =     15.02063  eV     1   --> A              
     e( 29 - 29) =     18.13321  eV     1   --> A              
     e( 30 - 30) =     22.78131  eV     1   --> A              
     e( 31 - 31) =     22.82043  eV     1   --> A              
     e( 32 - 32) =     23.89619  eV     1   --> A              
     e( 33 - 33) =     24.02887  eV     1   --> A              
     e( 34 - 34) =     24.06456  eV     1   --> A              
     e( 35 - 35) =     26.57683  eV     1   --> A              

 **************************************************************************

 **************************************************************************

                    xk=(   0.00000,   0.00000,   0.00000  )

     Band symmetry, C_1 (1)     point group:

     e(  1 -  1) =   -116.25063  eV     1   --> A              
     e(  2 -  2) =   -116.25029  eV     1   --> A              
     e(  3 -  3) =    -69.42360  eV     1   --> A              
     e(  4 -  4) =    -69.41563  eV     1   --> A              
     e(  5 -  5) =    -69.41550  eV     1   --> A              
     e(  6 -  6) =    -69.41392  eV     1   --> A              
     e(  7 -  7) =    -69.41322  eV     1   --> A              
     e(  8 -  8) =    -69.38176  eV     1   --> A              
     e(  9 -  9) =     -8.35632  eV     1   --> A              
     e( 10 - 10) =     -7.63826  eV     1   --> A              
     e( 11 - 11) =      3.78797  eV     1   --> A              
     e( 12 - 12) =      3.79113  eV     1   --> A              
     e( 13 - 13) =      3.90338  eV     1   --> A              
     e( 14 - 14) =      3.96265  eV     1   --> A              
     e( 15 - 15) =      3.96461  eV     1   --> A              
     e( 16 - 16) =      4.15077  eV     1   --> A              
     e( 17 - 17) =      4.88641  eV     1   --> A              
     e( 18 - 18) =      4.88748  eV     1   --> A              
     e( 19 - 19) =      5.01736  eV     1   --> A              
     e( 20 - 20) =      5.01884  eV     1   --> A              
     e( 21 - 21) =      5.53687  eV     1   --> A              
     e( 22 - 22) =      9.00600  eV     1   --> A              
     e( 23 - 23) =      9.01091  eV     1   --> A              
     e( 24 - 24) =      9.79560  eV     1   --> A              
     e( 25 - 26) =      9.79609  eV     2   -->   2 A              
     e( 27 - 27) =     10.59526  eV     1   --> A              
     e( 28 - 28) =     15.01276  eV     1   --> A              
     e( 29 - 29) =     18.13682  eV     1   --> A              
     e( 30 - 30) =     22.82013  eV     1   --> A              
     e( 31 - 31) =     22.82501  eV     1   --> A              
     e( 32 - 32) =     23.89827  eV     1   --> A              
     e( 33 - 33) =     24.04945  eV     1   --> A              
     e( 34 - 34) =     24.06330  eV     1   --> A              
     e( 35 - 35) =     26.57435  eV     1   --> A              

 **************************************************************************

     BANDS        :      2.42s CPU      3.93s WALL


   This run was terminated on:   1:26:47  29Aug2025            

=------------------------------------------------------------------------------=
   JOB DONE.
=------------------------------------------------------------------------------=
